<event>
 5    1  0.1133829E+000  0.9330609E+02  0.7818608E-02  0.1295037E+00
         -4   -1    0    0    0  501 -0.00000000000E+00  0.00000000000E+00  0.16089916259E+03  0.16090542850E+03  0.14200000000E+01 0.  1.
          4   -1    0    0  501    0  0.00000000000E+00 -0.00000000000E+00 -0.13483333508E+02  0.13557901109E+02  0.14200000000E+01 0. -1.
         23    2    1    2    0    0  0.00000000000E+00  0.00000000000E+00  0.14741582908E+03  0.17446332961E+03  0.93306091525E+02 0.  0.
        -11    1    3    3    0    0  0.31204575291E+02  0.22011427363E+02  0.23596056091E+02  0.44888777183E+02  0.51100000000E-03 0.  1.
         11    1    3    3    0    0 -0.31204575291E+02 -0.22011427363E+02  0.12381977299E+03  0.12957455243E+03  0.51100000000E-03 0. -1.
<mgrwt>
<rscale>  0 0.93306092E+02</rscale>
<asrwt>0</asrwt>
<pdfrwt beam="2">  1        4 0.20805771E-02 0.93306092E+02</pdfrwt>
<pdfrwt beam="1">  1       -4 0.24759934E-01 0.93306092E+02</pdfrwt>
<totfact> 0.21145780E+04</totfact>
</mgrwt>
</event>
<event>
 5    1  0.1133829E+000  0.9167432E+02  0.7818608E-02  0.1298847E+00
         -4   -1    0    0    0  501 -0.00000000000E+00  0.00000000000E+00  0.12531882613E+03  0.12532687095E+03  0.14200000000E+01 0.  1.
          4   -1    0    0  501    0  0.00000000000E+00 -0.00000000000E+00 -0.16726934317E+02  0.16787100156E+02  0.14200000000E+01 0. -1.
         23    2    1    2    0    0  0.00000000000E+00  0.00000000000E+00  0.10859189181E+03  0.14211397111E+03  0.91674324741E+02 0.  0.
        -11    1    3    3    0    0 -0.37168137967E+02  0.37288889647E+01  0.13115599653E+02  0.39590327700E+02  0.51100000000E-03 0.  1.
         11    1    3    3    0    0  0.37168137967E+02 -0.37288889647E+01  0.95476292161E+02  0.10252364341E+03  0.51100000000E-03 0. -1.
<mgrwt>
<rscale>  0 0.91674325E+02</rscale>
<asrwt>0</asrwt>
<pdfrwt beam="2">  1        4 0.25786214E-02 0.91674325E+02</pdfrwt>
<pdfrwt beam="1">  1       -4 0.19285067E-01 0.91674325E+02</pdfrwt>
<totfact> 0.23724219E+04</totfact>
</mgrwt>
</event>
<event>
 5    1  0.1133829E+000  0.8281438E+02  0.7818608E-02  0.1321249E+00
         -4   -1    0    0    0  501 -0.00000000000E+00  0.00000000000E+00  0.37841741036E+02  0.37868374201E+02  0.14200000000E+01 0.  1.
          4   -1    0    0  501    0  0.00000000000E+00 -0.00000000000E+00 -0.45254860344E+02  0.45277133133E+02  0.14200000000E+01 0. -1.
         23    2    1    2    0    0  0.00000000000E+00  0.00000000000E+00 -0.74131193073E+01  0.83145507334E+02  0.82814377085E+02 0.  0.
        -11    1    3    3    0    0  0.23997697191E+02 -0.32266320322E+02  0.62096910399E+01  0.40688636752E+02  0.51100000000E-03 0. -1.
         11    1    3    3    0    0 -0.23997697191E+02  0.32266320322E+02 -0.13622810347E+02  0.42456870582E+02  0.51100000000E-03 0.  1.
<mgrwt>
<rscale>  0 0.82814377E+02</rscale>
<asrwt>0</asrwt>
<pdfrwt beam="2">  1        4 0.69660482E-02 0.82814377E+02</pdfrwt>
<pdfrwt beam="1">  1       -4 0.58255684E-02 0.82814377E+02</pdfrwt>
<totfact> 0.35701808E+04</totfact>
</mgrwt>
</event>
<event>
 5    1  0.1133829E+000  0.8343835E+02  0.7818608E-02  0.1319568E+00
          4   -1    0    0  501    0  0.00000000000E+00  0.00000000000E+00  0.21600484122E+02  0.21647108683E+02  0.14200000000E+01 0. -1.
         -4   -1    0    0    0  501 -0.00000000000E+00 -0.00000000000E+00 -0.80436654738E+02  0.80449187848E+02  0.14200000000E+01 0.  1.
         23    2    1    2    0    0  0.00000000000E+00  0.00000000000E+00 -0.58836170616E+02  0.10209629653E+03  0.83438353247E+02 0.  0.
        -11    1    3    3    0    0  0.26068620430E+02  0.12524423062E+02 -0.66209104905E+02  0.72250119147E+02  0.51100000000E-03 0.  1.
         11    1    3    3    0    0 -0.26068620430E+02 -0.12524423062E+02  0.73729342894E+01  0.29846177384E+02  0.51100000000E-03 0. -1.
<mgrwt>
<rscale>  0 0.83438353E+02</rscale>
<asrwt>0</asrwt>
<pdfrwt beam="1">  1        4 0.33277020E-02 0.83438353E+02</pdfrwt>
<pdfrwt beam="2">  1       -4 0.12379420E-01 0.83438353E+02</pdfrwt>
<totfact> 0.33418513E+04</totfact>
</mgrwt>
</event>
<event>
 5    1  0.1133829E+000  0.9088244E+02  0.7818608E-02  0.1300729E+00
          4   -1    0    0  501    0  0.00000000000E+00  0.00000000000E+00  0.22178094286E+02  0.22223507062E+02  0.14200000000E+01 0. -1.
         -4   -1    0    0    0  501 -0.00000000000E+00 -0.00000000000E+00 -0.92959513246E+02  0.92970358195E+02  0.14200000000E+01 0.  1.
         23    2    1    2    0    0  0.00000000000E+00  0.00000000000E+00 -0.70781418960E+02  0.11519386526E+03  0.90882436823E+02 0.  0.
        -11    1    3    3    0    0  0.64002428093E+01  0.19390087409E+02 -0.86845222967E+02  0.89213403422E+02  0.51100000000E-03 0.  1.
         11    1    3    3    0    0 -0.64002428093E+01 -0.19390087409E+02  0.16063804007E+02  0.25980461835E+02  0.51100000000E-03 0. -1.
<mgrwt>
<rscale>  0 0.90882437E+02</rscale>
<asrwt>0</asrwt>
<pdfrwt beam="1">  1        4 0.34163421E-02 0.90882437E+02</pdfrwt>
<pdfrwt beam="2">  1       -4 0.14305791E-01 0.90882437E+02</pdfrwt>
<totfact> 0.25772461E+04</totfact>
</mgrwt>
</event>
<event>
 5    1  0.1133829E+000  0.9137259E+02  0.7818608E-02  0.1299561E+00
         -4   -1    0    0    0  501 -0.00000000000E+00  0.00000000000E+00  0.87776953631E+02  0.87788438810E+02  0.14200000000E+01 0.  1.
          4   -1    0    0  501    0  0.00000000000E+00 -0.00000000000E+00 -0.23744624674E+02  0.23787046914E+02  0.14200000000E+01 0. -1.
         23    2    1    2    0    0  0.00000000000E+00  0.00000000000E+00  0.64032328957E+02  0.11157548572E+03  0.91372588137E+02 0.  0.
        -11    1    3    3    0    0 -0.22002973046E+02  0.71640425839E+01 -0.16086415862E+02  0.28182035138E+02  0.51100000000E-03 0. -1.
         11    1    3    3    0    0  0.22002973046E+02 -0.71640425839E+01  0.80118744819E+02  0.83393450586E+02  0.51100000000E-03 0.  1.
<mgrwt>
<rscale>  0 0.91372588E+02</rscale>
<asrwt>0</asrwt>
<pdfrwt beam="2">  1        4 0.36571659E-02 0.91372588E+02</pdfrwt>
<pdfrwt beam="1">  1       -4 0.13508293E-01 0.91372588E+02</pdfrwt>
<totfact> 0.25610271E+04</totfact>
</mgrwt>
</event>
<event>
 5    1  0.1133829E+000  0.9029887E+02  0.7818608E-02  0.1302130E+00
         -4   -1    0    0    0  501 -0.00000000000E+00  0.00000000000E+00  0.46518155515E+02  0.46539823727E+02  0.14200000000E+01 0. -1.
          4   -1    0    0  501    0  0.00000000000E+00 -0.00000000000E+00 -0.43777605008E+02  0.43800628994E+02  0.14200000000E+01 0.  1.
         23    2    1    2    0    0  0.00000000000E+00  0.00000000000E+00  0.27405505071E+01  0.90340452721E+02  0.90298874748E+02 0.  0.
        -11    1    3    3    0    0 -0.35733590334E+02 -0.82524449481E+01  0.27716397153E+02  0.45969457221E+02  0.51100000000E-03 0. -1.
         11    1    3    3    0    0  0.35733590334E+02  0.82524449481E+01 -0.24975846646E+02  0.44370995500E+02  0.51100000000E-03 0.  1.
<mgrwt>
<rscale>  0 0.90298875E+02</rscale>
<asrwt>0</asrwt>
<pdfrwt beam="2">  1        4 0.67384541E-02 0.90298875E+02</pdfrwt>
<pdfrwt beam="1">  1       -4 0.71600771E-02 0.90298875E+02</pdfrwt>
<totfact> 0.27789326E+04</totfact>
</mgrwt>
</event>
<event>
 5    1  0.1133829E+000  0.8701674E+02  0.7818608E-02  0.1310241E+00
          4   -1    0    0  501    0  0.00000000000E+00  0.00000000000E+00  0.61244458792E+02  0.61260918478E+02  0.14200000000E+01 0. -1.
         -4   -1    0    0    0  501 -0.00000000000E+00 -0.00000000000E+00 -0.30871627945E+02  0.30904268507E+02  0.14200000000E+01 0.  1.
         23    2    1    2    0    0  0.00000000000E+00  0.00000000000E+00  0.30372830848E+02  0.92165186985E+02  0.87016738839E+02 0.  0.
        -11    1    3    3    0    0  0.74902141709E+01  0.30336480484E+02 -0.16879792223E+02  0.35515246616E+02  0.51100000000E-03 0. -1.
         11    1    3    3    0    0 -0.74902141709E+01 -0.30336480484E+02  0.47252623070E+02  0.56649940369E+02  0.51100000000E-03 0.  1.
<mgrwt>
<rscale>  0 0.87016739E+02</rscale>
<asrwt>0</asrwt>
<pdfrwt beam="1">  1        4 0.94260013E-02 0.87016739E+02</pdfrwt>
<pdfrwt beam="2">  1       -4 0.47532582E-02 0.87016739E+02</pdfrwt>
<totfact> 0.30575304E+04</totfact>
</mgrwt>
</event>
<event>
 5    1  0.1133829E+000  0.9101125E+02  0.7818608E-02  0.1300421E+00
          4   -1    0    0  501    0  0.00000000000E+00  0.00000000000E+00  0.57064795550E+02  0.57082460452E+02  0.14200000000E+01 0. -1.
         -4   -1    0    0    0  501 -0.00000000000E+00 -0.00000000000E+00 -0.36250720669E+02  0.36278521870E+02  0.14200000000E+01 0.  1.
         23    2    1    2    0    0  0.00000000000E+00  0.00000000000E+00  0.20814074881E+02  0.93360982321E+02  0.91011248244E+02 0.  0.
        -11    1    3    3    0    0  0.26901112218E+02  0.18114810762E+02 -0.22338026659E+02  0.39380244321E+02  0.51100000000E-03 0.  1.
         11    1    3    3    0    0 -0.26901112218E+02 -0.18114810762E+02  0.43152101540E+02  0.53980738000E+02  0.51100000000E-03 0. -1.
<mgrwt>
<rscale>  0 0.91011248E+02</rscale>
<asrwt>0</asrwt>
<pdfrwt beam="1">  1        4 0.87826966E-02 0.91011248E+02</pdfrwt>
<pdfrwt beam="2">  1       -4 0.55805314E-02 0.91011248E+02</pdfrwt>
<totfact> 0.27009492E+04</totfact>
</mgrwt>
</event>
<event>
 5    1  0.1133829E+000  0.9245087E+02  0.7818608E-02  0.1297023E+00
         -4   -1    0    0    0  501 -0.00000000000E+00  0.00000000000E+00  0.47694030451E+02  0.47715164682E+02  0.14200000000E+01 0.  1.
          4   -1    0    0  501    0  0.00000000000E+00 -0.00000000000E+00 -0.44759736012E+02  0.44782255055E+02  0.14200000000E+01 0. -1.
         23    2    1    2    0    0  0.00000000000E+00  0.00000000000E+00  0.29342944389E+01  0.92497419737E+02  0.92450865730E+02 0.  0.
        -11    1    3    3    0    0  0.27494905067E+02  0.22382880094E+02  0.31143970194E+02  0.47190147337E+02  0.51100000000E-03 0.  1.
         11    1    3    3    0    0 -0.27494905067E+02 -0.22382880094E+02 -0.28209675755E+02  0.45307272401E+02  0.51100000000E-03 0. -1.
<mgrwt>
<rscale>  0 0.92450866E+02</rscale>
<asrwt>0</asrwt>
<pdfrwt beam="2">  1        4 0.68894711E-02 0.92450866E+02</pdfrwt>
<pdfrwt beam="1">  1       -4 0.73409011E-02 0.92450866E+02</pdfrwt>
<totfact> 0.25933033E+04</totfact>
</mgrwt>
</event>
<event>
 5    1  0.1133829E+000  0.6053384E+02  0.7818608E-02  0.1395605E+00
          4   -1    0    0  501    0  0.00000000000E+00  0.00000000000E+00  0.59783804010E+01  0.61447076594E+01  0.14200000000E+01 0. -1.
         -4   -1    0    0    0  501 -0.00000000000E+00 -0.00000000000E+00 -0.15096116761E+03  0.15096784600E+03  0.14200000000E+01 0.  1.
         23    2    1    2    0    0  0.00000000000E+00  0.00000000000E+00 -0.14498278721E+03  0.15711255366E+03  0.60533841203E+02 0.  0.
        -11    1    3    3    0    0  0.18549279560E+02 -0.23908191127E+02 -0.70831305052E+02  0.77024354271E+02  0.51100000000E-03 0. -1.
         11    1    3    3    0    0 -0.18549279560E+02  0.23908191127E+02 -0.74151482158E+02  0.80088199391E+02  0.51100000000E-03 0.  1.
<mgrwt>
<rscale>  0 0.60533841E+02</rscale>
<asrwt>0</asrwt>
<pdfrwt beam="1">  1        4 0.93305907E-03 0.60533841E+02</pdfrwt>
<pdfrwt beam="2">  1       -4 0.23238100E-01 0.60533841E+02</pdfrwt>
<totfact> 0.67849147E+04</totfact>
</mgrwt>
</event>
<event>
 5    1  0.1133829E+000  0.9062353E+02  0.7818608E-02  0.1301349E+00
          4   -1    0    0  501    0  0.00000000000E+00  0.00000000000E+00  0.18842402910E+02  0.18895834129E+02  0.14200000000E+01 0. -1.
         -4   -1    0    0    0  501 -0.00000000000E+00 -0.00000000000E+00 -0.10875231701E+03  0.10876158722E+03  0.14200000000E+01 0.  1.
         23    2    1    2    0    0  0.00000000000E+00  0.00000000000E+00 -0.89909914102E+02  0.12765742135E+03  0.90623532112E+02 0.  0.
        -11    1    3    3    0    0 -0.35885643641E+02  0.82883913981E+01 -0.82135997034E+02  0.90015547882E+02  0.51100000000E-03 0.  1.
         11    1    3    3    0    0  0.35885643641E+02 -0.82883913981E+01 -0.77739170672E+01  0.37641873470E+02  0.51100000000E-03 0. -1.
<mgrwt>
<rscale>  0 0.90623532E+02</rscale>
<asrwt>0</asrwt>
<pdfrwt beam="1">  1        4 0.29036545E-02 0.90623532E+02</pdfrwt>
<pdfrwt beam="2">  1       -4 0.16735948E-01 0.90623532E+02</pdfrwt>
<totfact> 0.25256677E+04</totfact>
</mgrwt>
</event>
<event>
 5    1  0.1133829E+000  0.9309139E+02  0.7818608E-02  0.1295534E+00
          4   -1    0    0  501    0  0.00000000000E+00  0.00000000000E+00  0.29865649817E+03  0.29865987394E+03  0.14200000000E+01 0. -1.
         -4   -1    0    0    0  501 -0.00000000000E+00 -0.00000000000E+00 -0.71812175208E+01  0.73202653696E+01  0.14200000000E+01 0.  1.
         23    2    1    2    0    0  0.00000000000E+00  0.00000000000E+00  0.29147528065E+03  0.30598013931E+03  0.93091387463E+02 0.  0.
        -11    1    3    3    0    0 -0.24193683295E+02 -0.36917744304E+02  0.19429536437E+03  0.19924593540E+03  0.51100000000E-03 0.  1.
         11    1    3    3    0    0  0.24193683295E+02  0.36917744304E+02  0.97179916283E+02  0.10673420391E+03  0.51100000000E-03 0. -1.
<mgrwt>
<rscale>  0 0.93091387E+02</rscale>
<asrwt>0</asrwt>
<pdfrwt beam="1">  1        4 0.45958105E-01 0.93091387E+02</pdfrwt>
<pdfrwt beam="2">  1       -4 0.11157585E-02 0.93091387E+02</pdfrwt>
<totfact> 0.16688841E+04</totfact>
</mgrwt>
</event>
<event>
 5    1  0.1133829E+000  0.9202026E+02  0.7818608E-02  0.1298032E+00
          4   -1    0    0  501    0  0.00000000000E+00  0.00000000000E+00  0.88638068916E+01  0.89768297640E+01  0.14200000000E+01 0. -1.
         -4   -1    0    0    0  501 -0.00000000000E+00 -0.00000000000E+00 -0.23720060156E+03  0.23720485193E+03  0.14200000000E+01 0.  1.
         23    2    1    2    0    0  0.00000000000E+00  0.00000000000E+00 -0.22833679467E+03  0.24618168170E+03  0.92020261919E+02 0.  0.
        -11    1    3    3    0    0  0.41685923566E+02  0.18654134999E+02 -0.12912118078E+03  0.13695974702E+03  0.51100000000E-03 0.  1.
         11    1    3    3    0    0 -0.41685923566E+02 -0.18654134999E+02 -0.99215613887E+02  0.10922193468E+03  0.51100000000E-03 0. -1.
<mgrwt>
<rscale>  0 0.92020262E+02</rscale>
<asrwt>0</asrwt>
<pdfrwt beam="1">  1        4 0.13726838E-02 0.92020262E+02</pdfrwt>
<pdfrwt beam="2">  1       -4 0.36501416E-01 0.92020262E+02</pdfrwt>
<totfact> 0.19123205E+04</totfact>
</mgrwt>
</event>
<event>
 5    1  0.1133829E+000  0.9492788E+02  0.7818608E-02  0.1291339E+00
          4   -1    0    0  501    0  0.00000000000E+00  0.00000000000E+00  0.21681219178E+02  0.21727670493E+02  0.14200000000E+01 0.  1.
         -4   -1    0    0    0  501 -0.00000000000E+00 -0.00000000000E+00 -0.10374426766E+03  0.10375398533E+03  0.14200000000E+01 0. -1.
         23    2    1    2    0    0  0.00000000000E+00  0.00000000000E+00 -0.82063048479E+02  0.12548165582E+03  0.94927878003E+02 0.  0.
        -11    1    3    3    0    0 -0.24454183614E+02 -0.20785670677E+02 -0.87254682912E+02  0.92970053738E+02  0.51100000000E-03 0. -1.
         11    1    3    3    0    0  0.24454183614E+02  0.20785670677E+02  0.51916344327E+01  0.32511602084E+02  0.51100000000E-03 0.  1.
<mgrwt>
<rscale>  0 0.94927878E+02</rscale>
<asrwt>0</asrwt>
<pdfrwt beam="1">  1        4 0.33398929E-02 0.94927878E+02</pdfrwt>
<pdfrwt beam="2">  1       -4 0.15964977E-01 0.94927878E+02</pdfrwt>
<totfact> 0.22379986E+04</totfact>
</mgrwt>
</event>
<event>
 5    1  0.1133829E+000  0.9061532E+02  0.7818608E-02  0.1301368E+00
          4   -1    0    0  501    0  0.00000000000E+00  0.00000000000E+00  0.46968441873E+02  0.46989902447E+02  0.14200000000E+01 0. -1.
         -4   -1    0    0    0  501 -0.00000000000E+00 -0.00000000000E+00 -0.43662614971E+02  0.43685699561E+02  0.14200000000E+01 0.  1.
         23    2    1    2    0    0  0.00000000000E+00  0.00000000000E+00  0.33058269022E+01  0.90675602008E+02  0.90615320493E+02 0.  0.
        -11    1    3    3    0    0 -0.27631975488E+02  0.63788370316E+01 -0.33705681111E+02  0.44048706799E+02  0.51100000000E-03 0.  1.
         11    1    3    3    0    0  0.27631975488E+02 -0.63788370316E+01  0.37011508013E+02  0.46626895210E+02  0.51100000000E-03 0. -1.
<mgrwt>
<rscale>  0 0.90615320E+02</rscale>
<asrwt>0</asrwt>
<pdfrwt beam="1">  1        4 0.72293407E-02 0.90615320E+02</pdfrwt>
<pdfrwt beam="2">  1       -4 0.67207519E-02 0.90615320E+02</pdfrwt>
<totfact> 0.27505391E+04</totfact>
</mgrwt>
</event>
<event>
 5    1  0.1133829E+000  0.7310234E+02  0.7818608E-02  0.1349850E+00
         -4   -1    0    0    0  501 -0.00000000000E+00  0.00000000000E+00  0.33880637674E+01  0.36736053261E+01  0.14200000000E+01 0.  1.
          4   -1    0    0  501    0  0.00000000000E+00 -0.00000000000E+00 -0.37809051433E+03  0.37809318088E+03  0.14200000000E+01 0. -1.
         23    2    1    2    0    0  0.00000000000E+00  0.00000000000E+00 -0.37470245056E+03  0.38176678620E+03  0.73102343265E+02 0.  0.
        -11    1    3    3    0    0 -0.33868922631E+02 -0.13393863585E+02 -0.20343799909E+03  0.20667249206E+03  0.51100000000E-03 0. -1.
         11    1    3    3    0    0  0.33868922631E+02  0.13393863585E+02 -0.17126445148E+03  0.17509429415E+03  0.51100000000E-03 0.  1.
<mgrwt>
<rscale>  0 0.73102343E+02</rscale>
<asrwt>0</asrwt>
<pdfrwt beam="2">  1        4 0.58189909E-01 0.73102343E+02</pdfrwt>
<pdfrwt beam="1">  1       -4 0.54341073E-03 0.73102343E+02</pdfrwt>
<totfact> 0.27718408E+04</totfact>
</mgrwt>
</event>
<event>
 5    1  0.1133829E+000  0.9031116E+02  0.7818608E-02  0.1302100E+00
         -4   -1    0    0    0  501 -0.00000000000E+00  0.00000000000E+00  0.88195233453E+02  0.88206664169E+02  0.14200000000E+01 0.  1.
          4   -1    0    0  501    0  0.00000000000E+00 -0.00000000000E+00 -0.23084717815E+02  0.23128350495E+02  0.14200000000E+01 0. -1.
         23    2    1    2    0    0  0.00000000000E+00  0.00000000000E+00  0.65110515638E+02  0.11133501466E+03  0.90311163449E+02 0.  0.
        -11    1    3    3    0    0 -0.70962013649E+01  0.17882386610E+02  0.82917410510E+02  0.85120108028E+02  0.51100000000E-03 0.  1.
         11    1    3    3    0    0  0.70962013649E+01 -0.17882386610E+02 -0.17806894873E+02  0.26214906636E+02  0.51100000000E-03 0. -1.
<mgrwt>
<rscale>  0 0.90311163E+02</rscale>
<asrwt>0</asrwt>
<pdfrwt beam="2">  1        4 0.35557308E-02 0.90311163E+02</pdfrwt>
<pdfrwt beam="1">  1       -4 0.13572733E-01 0.90311163E+02</pdfrwt>
<totfact> 0.26446053E+04</totfact>
</mgrwt>
</event>
<event>
 5    1  0.1133829E+000  0.9062423E+02  0.7818608E-02  0.1301347E+00
         -4   -1    0    0    0  501 -0.00000000000E+00  0.00000000000E+00  0.23683755570E+02  0.23726286644E+02  0.14200000000E+01 0.  1.
          4   -1    0    0  501    0  0.00000000000E+00 -0.00000000000E+00 -0.86565692118E+02  0.86577337981E+02  0.14200000000E+01 0. -1.
         23    2    1    2    0    0  0.00000000000E+00  0.00000000000E+00 -0.62881936548E+02  0.11030362463E+03  0.90624233301E+02 0.  0.
        -11    1    3    3    0    0 -0.22885104547E+01  0.27312653721E+02  0.12477365736E+02  0.30114830057E+02  0.51100000000E-03 0.  1.
         11    1    3    3    0    0  0.22885104547E+01 -0.27312653721E+02 -0.75359302284E+02  0.80188794569E+02  0.51100000000E-03 0. -1.
<mgrwt>
<rscale>  0 0.90624233E+02</rscale>
<asrwt>0</asrwt>
<pdfrwt beam="2">  1        4 0.13321966E-01 0.90624233E+02</pdfrwt>
<pdfrwt beam="1">  1       -4 0.36478222E-02 0.90624233E+02</pdfrwt>
<totfact> 0.26262487E+04</totfact>
</mgrwt>
</event>
<event>
 5    1  0.1133829E+000  0.8997159E+02  0.7818608E-02  0.1302921E+00
         -4   -1    0    0    0  501 -0.00000000000E+00  0.00000000000E+00  0.16074937869E+02  0.16137534741E+02  0.14200000000E+01 0. -1.
          4   -1    0    0  501    0  0.00000000000E+00 -0.00000000000E+00 -0.12558172126E+03  0.12558974924E+03  0.14200000000E+01 0.  1.
         23    2    1    2    0    0  0.00000000000E+00  0.00000000000E+00 -0.10950678339E+03  0.14172728398E+03  0.89971592274E+02 0.  0.
        -11    1    3    3    0    0  0.30999353527E+02  0.15974133303E+02 -0.99518872711E+02  0.10545206911E+03  0.51100000000E-03 0.  1.
         11    1    3    3    0    0 -0.30999353527E+02 -0.15974133303E+02 -0.99879106773E+01  0.36275214869E+02  0.51100000000E-03 0. -1.
<mgrwt>
<rscale>  0 0.89971592E+02</rscale>
<asrwt>0</asrwt>
<pdfrwt beam="2">  1        4 0.19325697E-01 0.89971592E+02</pdfrwt>
<pdfrwt beam="1">  1       -4 0.24785001E-02 0.89971592E+02</pdfrwt>
<totfact> 0.24972354E+04</totfact>
</mgrwt>
</event>
<event>
 5    1  0.1133829E+000  0.9020438E+02  0.7818608E-02  0.1302358E+00
          4   -1    0    0  501    0  0.00000000000E+00  0.00000000000E+00  0.31917757443E+02  0.31949329260E+02  0.14200000000E+01 0.  1.
         -4   -1    0    0    0  501 -0.00000000000E+00 -0.00000000000E+00 -0.63661789438E+02  0.63677624284E+02  0.14200000000E+01 0. -1.
         23    2    1    2    0    0  0.00000000000E+00  0.00000000000E+00 -0.31744031995E+02  0.95626953545E+02  0.90204382803E+02 0.  0.
        -11    1    3    3    0    0  0.32678689220E+02  0.99703249410E+00  0.17065256147E+02  0.36879720315E+02  0.51100000000E-03 0.  1.
         11    1    3    3    0    0 -0.32678689220E+02 -0.99703249410E+00 -0.48809288142E+02  0.58747233229E+02  0.51100000000E-03 0. -1.
<mgrwt>
<rscale>  0 0.90204383E+02</rscale>
<asrwt>0</asrwt>
<pdfrwt beam="1">  1        4 0.49140709E-02 0.90204383E+02</pdfrwt>
<pdfrwt beam="2">  1       -4 0.97977681E-02 0.90204383E+02</pdfrwt>
<totfact> 0.27518975E+04</totfact>
</mgrwt>
</event>
<event>
 5    1  0.1133829E+000  0.9348723E+02  0.7818608E-02  0.1294620E+00
         -4   -1    0    0    0  501 -0.00000000000E+00  0.00000000000E+00  0.18503784416E+02  0.18558190583E+02  0.14200000000E+01 0.  1.
          4   -1    0    0  501    0  0.00000000000E+00 -0.00000000000E+00 -0.11785006646E+03  0.11785862109E+03  0.14200000000E+01 0. -1.
         23    2    1    2    0    0  0.00000000000E+00  0.00000000000E+00 -0.99346282048E+02  0.13641681167E+03  0.93487233088E+02 0.  0.
        -11    1    3    3    0    0  0.85853326226E+01  0.42213493337E+02 -0.23194394108E+02  0.48925114964E+02  0.51100000000E-03 0. -1.
         11    1    3    3    0    0 -0.85853326226E+01 -0.42213493337E+02 -0.76151887940E+02  0.87491696709E+02  0.51100000000E-03 0.  1.
<mgrwt>
<rscale>  0 0.93487233E+02</rscale>
<asrwt>0</asrwt>
<pdfrwt beam="2">  1        4 0.18135622E-01 0.93487233E+02</pdfrwt>
<pdfrwt beam="1">  1       -4 0.28515793E-02 0.93487233E+02</pdfrwt>
<totfact> 0.22778543E+04</totfact>
</mgrwt>
</event>
<event>
 5    1  0.1133829E+000  0.9234031E+02  0.7818608E-02  0.1297281E+00
          4   -1    0    0  501    0  0.00000000000E+00  0.00000000000E+00  0.15126010457E+03  0.15126676977E+03  0.14200000000E+01 0. -1.
         -4   -1    0    0    0  501 -0.00000000000E+00 -0.00000000000E+00 -0.14050066323E+02  0.14121641678E+02  0.14200000000E+01 0.  1.
         23    2    1    2    0    0  0.00000000000E+00  0.00000000000E+00  0.13721003825E+03  0.16538841144E+03  0.92340305627E+02 0.  0.
        -11    1    3    3    0    0 -0.38504212854E+02 -0.17614649174E+02  0.10157407044E+03  0.11004609061E+03  0.51100000000E-03 0. -1.
         11    1    3    3    0    0  0.38504212854E+02  0.17614649174E+02  0.35635967811E+02  0.55342320833E+02  0.51100000000E-03 0.  1.
<mgrwt>
<rscale>  0 0.92340306E+02</rscale>
<asrwt>0</asrwt>
<pdfrwt beam="1">  1        4 0.23276805E-01 0.92340306E+02</pdfrwt>
<pdfrwt beam="2">  1       -4 0.21675671E-02 0.92340306E+02</pdfrwt>
<totfact> 0.22153920E+04</totfact>
</mgrwt>
</event>
<event>
 5    1  0.1133829E+000  0.9176301E+02  0.7818608E-02  0.1298638E+00
         -4   -1    0    0    0  501 -0.00000000000E+00  0.00000000000E+00  0.38910778608E+01  0.41420872659E+01  0.14200000000E+01 0.  1.
          4   -1    0    0  501    0  0.00000000000E+00 -0.00000000000E+00 -0.52385337403E+03  0.52385529861E+03  0.14200000000E+01 0. -1.
         23    2    1    2    0    0  0.00000000000E+00  0.00000000000E+00 -0.51996229617E+03  0.52799738588E+03  0.91763010277E+02 0.  0.
        -11    1    3    3    0    0  0.43781448289E+02  0.13702763107E+02 -0.26417631678E+03  0.26813001936E+03  0.51100000000E-03 0.  1.
         11    1    3    3    0    0 -0.43781448289E+02 -0.13702763107E+02 -0.25578597938E+03  0.25986736652E+03  0.51100000000E-03 0. -1.
<mgrwt>
<rscale>  0 0.91763010E+02</rscale>
<asrwt>0</asrwt>
<pdfrwt beam="2">  1        4 0.80612229E-01 0.91763010E+02</pdfrwt>
<pdfrwt beam="1">  1       -4 0.61808424E-03 0.91763010E+02</pdfrwt>
<totfact> 0.12357340E+04</totfact>
</mgrwt>
</event>
<event>
 5    1  0.1133829E+000  0.9088350E+02  0.7818608E-02  0.1300726E+00
         -4   -1    0    0    0  501 -0.00000000000E+00  0.00000000000E+00  0.23886838243E+02  0.23929008363E+02  0.14200000000E+01 0.  1.
          4   -1    0    0  501    0  0.00000000000E+00 -0.00000000000E+00 -0.86323036470E+02  0.86334715065E+02  0.14200000000E+01 0. -1.
         23    2    1    2    0    0  0.00000000000E+00  0.00000000000E+00 -0.62436198226E+02  0.11026372343E+03  0.90883496056E+02 0.  0.
        -11    1    3    3    0    0  0.13129485113E+02 -0.40799422246E+02 -0.12899493554E+02  0.44759056839E+02  0.51100000000E-03 0.  1.
         11    1    3    3    0    0 -0.13129485113E+02  0.40799422246E+02 -0.49536704673E+02  0.65504666589E+02  0.51100000000E-03 0. -1.
<mgrwt>
<rscale>  0 0.90883496E+02</rscale>
<asrwt>0</asrwt>
<pdfrwt beam="2">  1        4 0.13284609E-01 0.90883496E+02</pdfrwt>
<pdfrwt beam="1">  1       -4 0.36790404E-02 0.90883496E+02</pdfrwt>
<totfact> 0.26063255E+04</totfact>
</mgrwt>
</event>
<event>
 5    1  0.1133829E+000  0.9396911E+02  0.7818608E-02  0.1293515E+00
          4   -1    0    0  501    0  0.00000000000E+00  0.00000000000E+00  0.11730257931E+03  0.11731117386E+03  0.14200000000E+01 0.  1.
         -4   -1    0    0    0  501 -0.00000000000E+00 -0.00000000000E+00 -0.18783182010E+02  0.18836781212E+02  0.14200000000E+01 0. -1.
         23    2    1    2    0    0  0.00000000000E+00  0.00000000000E+00  0.98519397295E+02  0.13614795507E+03  0.93969112085E+02 0.  0.
        -11    1    3    3    0    0  0.18728362092E+02 -0.25760638398E+02  0.99306941786E+02  0.10428916878E+03  0.51100000000E-03 0.  1.
         11    1    3    3    0    0 -0.18728362092E+02  0.25760638398E+02 -0.78754449079E+00  0.31858786290E+02  0.51100000000E-03 0. -1.
<mgrwt>
<rscale>  0 0.93969112E+02</rscale>
<asrwt>0</asrwt>
<pdfrwt beam="1">  1        4 0.18051334E-01 0.93969112E+02</pdfrwt>
<pdfrwt beam="2">  1       -4 0.28945045E-02 0.93969112E+02</pdfrwt>
<totfact> 0.22476462E+04</totfact>
</mgrwt>
</event>
<event>
 5    1  0.1133829E+000  0.9145428E+02  0.7818608E-02  0.1299368E+00
         -4   -1    0    0    0  501 -0.00000000000E+00  0.00000000000E+00  0.75367835146E+01  0.76693875730E+01  0.14200000000E+01 0.  1.
          4   -1    0    0  501    0  0.00000000000E+00 -0.00000000000E+00 -0.27488170914E+03  0.27488537687E+03  0.14200000000E+01 0. -1.
         23    2    1    2    0    0  0.00000000000E+00  0.00000000000E+00 -0.26734492562E+03  0.28255476444E+03  0.91454281772E+02 0.  0.
        -11    1    3    3    0    0  0.24008567314E+02 -0.37461726142E+02 -0.16624940605E+03  0.17210071831E+03  0.51100000000E-03 0.  1.
         11    1    3    3    0    0 -0.24008567314E+02  0.37461726142E+02 -0.10109551957E+03  0.11045404613E+03  0.51100000000E-03 0. -1.
<mgrwt>
<rscale>  0 0.91454282E+02</rscale>
<asrwt>0</asrwt>
<pdfrwt beam="2">  1        4 0.42299969E-01 0.91454282E+02</pdfrwt>
<pdfrwt beam="1">  1       -4 0.11699878E-02 0.91454282E+02</pdfrwt>
<totfact> 0.18217855E+04</totfact>
</mgrwt>
</event>
<event>
 5    1  0.1133829E+000  0.9017072E+02  0.7818608E-02  0.1302439E+00
         -4   -1    0    0    0  501 -0.00000000000E+00  0.00000000000E+00  0.55990006508E+02  0.56008010398E+02  0.14200000000E+01 0.  1.
          4   -1    0    0  501    0  0.00000000000E+00 -0.00000000000E+00 -0.36266769790E+02  0.36294558696E+02  0.14200000000E+01 0. -1.
         23    2    1    2    0    0  0.00000000000E+00  0.00000000000E+00  0.19723236718E+02  0.92302569094E+02  0.90170716947E+02 0.  0.
        -11    1    3    3    0    0 -0.18176249975E+02  0.28806070868E+02 -0.20375256257E+02  0.39690261398E+02  0.51100000000E-03 0. -1.
         11    1    3    3    0    0  0.18176249975E+02 -0.28806070868E+02  0.40098492975E+02  0.52612307696E+02  0.51100000000E-03 0.  1.
<mgrwt>
<rscale>  0 0.90170717E+02</rscale>
<asrwt>0</asrwt>
<pdfrwt beam="2">  1        4 0.55830256E-02 0.90170717E+02</pdfrwt>
<pdfrwt beam="1">  1       -4 0.86173696E-02 0.90170717E+02</pdfrwt>
<totfact> 0.27765900E+04</totfact>
</mgrwt>
</event>
<event>
 5    1  0.1133829E+000  0.9182009E+02  0.7818608E-02  0.1298503E+00
         -4   -1    0    0    0  501 -0.00000000000E+00  0.00000000000E+00  0.21397392162E+03  0.21397863336E+03  0.14200000000E+01 0. -1.
          4   -1    0    0  501    0  0.00000000000E+00 -0.00000000000E+00 -0.97943944356E+01  0.98967955601E+01  0.14200000000E+01 0.  1.
         23    2    1    2    0    0  0.00000000000E+00  0.00000000000E+00  0.20417952719E+03  0.22387542892E+03  0.91820086864E+02 0.  0.
        -11    1    3    3    0    0 -0.43723177457E+01  0.45555064965E+02  0.93180838159E+02  0.10381257008E+03  0.51100000000E-03 0.  1.
         11    1    3    3    0    0  0.43723177457E+01 -0.45555064965E+02  0.11099868903E+03  0.12006285884E+03  0.51100000000E-03 0. -1.
<mgrwt>
<rscale>  0 0.91820087E+02</rscale>
<asrwt>0</asrwt>
<pdfrwt beam="2">  1        4 0.15150695E-02 0.91820087E+02</pdfrwt>
<pdfrwt beam="1">  1       -4 0.32927302E-01 0.91820087E+02</pdfrwt>
<totfact> 0.20047606E+04</totfact>
</mgrwt>
</event>
<event>
 5    1  0.1133829E+000  0.9175894E+02  0.7818608E-02  0.1298647E+00
          4   -1    0    0  501    0  0.00000000000E+00  0.00000000000E+00  0.59242533217E+01  0.60920585535E+01  0.14200000000E+01 0. -1.
         -4   -1    0    0    0  501 -0.00000000000E+00 -0.00000000000E+00 -0.35017550212E+03  0.35017838124E+03  0.14200000000E+01 0.  1.
         23    2    1    2    0    0  0.00000000000E+00  0.00000000000E+00 -0.34425124880E+03  0.35627043979E+03  0.91758944897E+02 0.  0.
        -11    1    3    3    0    0  0.35495190430E+02  0.23034694856E+02 -0.24097288342E+03  0.24465983785E+03  0.51100000000E-03 0.  1.
         11    1    3    3    0    0 -0.35495190430E+02 -0.23034694856E+02 -0.10327836538E+03  0.11161060194E+03  0.51100000000E-03 0. -1.
<mgrwt>
<rscale>  0 0.91758945E+02</rscale>
<asrwt>0</asrwt>
<pdfrwt beam="1">  1        4 0.92455343E-03 0.91758945E+02</pdfrwt>
<pdfrwt beam="2">  1       -4 0.53886268E-01 0.91758945E+02</pdfrwt>
<totfact> 0.15959192E+04</totfact>
</mgrwt>
</event>
<event>
 5    1  0.1133829E+000  0.9213856E+02  0.7818608E-02  0.1297754E+00
         -4   -1    0    0    0  501 -0.00000000000E+00  0.00000000000E+00  0.14431992029E+02  0.14501682451E+02  0.14200000000E+01 0.  1.
          4   -1    0    0  501    0  0.00000000000E+00 -0.00000000000E+00 -0.14663332505E+03  0.14664020054E+03  0.14200000000E+01 0. -1.
         23    2    1    2    0    0  0.00000000000E+00  0.00000000000E+00 -0.13220133302E+03  0.16114188299E+03  0.92138558714E+02 0.  0.
        -11    1    3    3    0    0  0.45367113338E+02  0.35499511099E+01 -0.53537542243E+02  0.70264112854E+02  0.51100000000E-03 0.  1.
         11    1    3    3    0    0 -0.45367113338E+02 -0.35499511099E+01 -0.78663790774E+02  0.90877770135E+02  0.51100000000E-03 0. -1.
<mgrwt>
<rscale>  0 0.92138559E+02</rscale>
<asrwt>0</asrwt>
<pdfrwt beam="2">  1        4 0.22564862E-01 0.92138559E+02</pdfrwt>
<pdfrwt beam="1">  1       -4 0.22261962E-02 0.92138559E+02</pdfrwt>
<totfact> 0.22481348E+04</totfact>
</mgrwt>
</event>
<event>
 5    1  0.1133829E+000  0.9010165E+02  0.7818608E-02  0.1302606E+00
          4   -1    0    0  501    0  0.00000000000E+00  0.00000000000E+00  0.44614632627E+02  0.44637224874E+02  0.14200000000E+01 0. -1.
         -4   -1    0    0    0  501 -0.00000000000E+00 -0.00000000000E+00 -0.45446084078E+02  0.45468263196E+02  0.14200000000E+01 0.  1.
         23    2    1    2    0    0  0.00000000000E+00  0.00000000000E+00 -0.83145145173E+00  0.90105488070E+02  0.90101651865E+02 0.  0.
        -11    1    3    3    0    0 -0.42453550691E+01  0.21797072542E+02 -0.39614862719E+02  0.45414455403E+02  0.51100000000E-03 0.  1.
         11    1    3    3    0    0  0.42453550691E+01 -0.21797072542E+02  0.38783411267E+02  0.44691032667E+02  0.51100000000E-03 0. -1.
<mgrwt>
<rscale>  0 0.90101652E+02</rscale>
<asrwt>0</asrwt>
<pdfrwt beam="1">  1        4 0.68672336E-02 0.90101652E+02</pdfrwt>
<pdfrwt beam="2">  1       -4 0.69951492E-02 0.90101652E+02</pdfrwt>
<totfact> 0.27969939E+04</totfact>
</mgrwt>
</event>
<event>
 5    1  0.1133829E+000  0.9164646E+02  0.7818608E-02  0.1298913E+00
          4   -1    0    0  501    0  0.00000000000E+00  0.00000000000E+00  0.12312670703E+03  0.12313489507E+03  0.14200000000E+01 0. -1.
         -4   -1    0    0    0  501 -0.00000000000E+00 -0.00000000000E+00 -0.17015388008E+02  0.17074537448E+02  0.14200000000E+01 0.  1.
         23    2    1    2    0    0  0.00000000000E+00  0.00000000000E+00  0.10611131902E+03  0.14020943252E+03  0.91646456247E+02 0.  0.
        -11    1    3    3    0    0 -0.15755069011E+02 -0.23924233765E+02  0.10777324042E+03  0.11151530169E+03  0.51100000000E-03 0. -1.
         11    1    3    3    0    0  0.15755069011E+02  0.23924233765E+02 -0.16619213990E+01  0.28694130825E+02  0.51100000000E-03 0.  1.
<mgrwt>
<rscale>  0 0.91646456E+02</rscale>
<asrwt>0</asrwt>
<pdfrwt beam="1">  1        4 0.18947750E-01 0.91646456E+02</pdfrwt>
<pdfrwt beam="2">  1       -4 0.26229318E-02 0.91646456E+02</pdfrwt>
<totfact> 0.23841332E+04</totfact>
</mgrwt>
</event>
<event>
 5    1  0.1133829E+000  0.8919780E+02  0.7818608E-02  0.1304806E+00
          4   -1    0    0  501    0  0.00000000000E+00  0.00000000000E+00  0.68825988329E+02  0.68840635307E+02  0.14200000000E+01 0. -1.
         -4   -1    0    0    0  501 -0.00000000000E+00 -0.00000000000E+00 -0.28864691746E+02  0.28899599125E+02  0.14200000000E+01 0.  1.
         23    2    1    2    0    0  0.00000000000E+00  0.00000000000E+00  0.39961296583E+02  0.97740234432E+02  0.89197803797E+02 0.  0.
        -11    1    3    3    0    0  0.23288787124E+02 -0.76255589999E+01  0.60812515513E+02  0.65564310406E+02  0.51100000000E-03 0. -1.
         11    1    3    3    0    0 -0.23288787124E+02  0.76255589999E+01 -0.20851218930E+02  0.32175924026E+02  0.51100000000E-03 0.  1.
<mgrwt>
<rscale>  0 0.89197804E+02</rscale>
<asrwt>0</asrwt>
<pdfrwt beam="1">  1        4 0.10592425E-01 0.89197804E+02</pdfrwt>
<pdfrwt beam="2">  1       -4 0.44445337E-02 0.89197804E+02</pdfrwt>
<totfact> 0.28224084E+04</totfact>
</mgrwt>
</event>
<event>
 5    1  0.1133829E+000  0.6886358E+02  0.7818608E-02  0.1364001E+00
          4   -1    0    0  501    0  0.00000000000E+00  0.00000000000E+00  0.64433520744E+01  0.65979683202E+01  0.14200000000E+01 0. -1.
         -4   -1    0    0    0  501 -0.00000000000E+00 -0.00000000000E+00 -0.18165672933E+03  0.18166227927E+03  0.14200000000E+01 0.  1.
         23    2    1    2    0    0  0.00000000000E+00  0.00000000000E+00 -0.17521337726E+03  0.18826024759E+03  0.68863584388E+02 0.  0.
        -11    1    3    3    0    0 -0.26964846380E+02  0.97769526081E+01 -0.35530823052E+02  0.45663236083E+02  0.51100000000E-03 0. -1.
         11    1    3    3    0    0  0.26964846380E+02 -0.97769526081E+01 -0.13968255420E+03  0.14259701151E+03  0.51100000000E-03 0.  1.
<mgrwt>
<rscale>  0 0.68863584E+02</rscale>
<asrwt>0</asrwt>
<pdfrwt beam="1">  1        4 0.10036055E-02 0.68863584E+02</pdfrwt>
<pdfrwt beam="2">  1       -4 0.27959506E-01 0.68863584E+02</pdfrwt>
<totfact> 0.45715178E+04</totfact>
</mgrwt>
</event>
<event>
 5    1  0.1133829E+000  0.9298852E+02  0.7818608E-02  0.1295772E+00
         -4   -1    0    0    0  501 -0.00000000000E+00  0.00000000000E+00  0.52490143403E+02  0.52509347306E+02  0.14200000000E+01 0.  1.
          4   -1    0    0  501    0  0.00000000000E+00 -0.00000000000E+00 -0.41144287735E+02  0.41168784452E+02  0.14200000000E+01 0. -1.
         23    2    1    2    0    0  0.00000000000E+00  0.00000000000E+00  0.11345855668E+02  0.93678131758E+02  0.92988515037E+02 0.  0.
        -11    1    3    3    0    0 -0.55934885970E+01  0.16452426255E+02  0.49117526332E+02  0.52100871755E+02  0.51100000000E-03 0.  1.
         11    1    3    3    0    0  0.55934885970E+01 -0.16452426255E+02 -0.37771670664E+02  0.41577260003E+02  0.51100000000E-03 0. -1.
<mgrwt>
<rscale>  0 0.92988515E+02</rscale>
<asrwt>0</asrwt>
<pdfrwt beam="2">  1        4 0.63332521E-02 0.92988515E+02</pdfrwt>
<pdfrwt beam="1">  1       -4 0.80787682E-02 0.92988515E+02</pdfrwt>
<totfact> 0.25455555E+04</totfact>
</mgrwt>
</event>
<event>
 5    1  0.1133829E+000  0.8610014E+02  0.7818608E-02  0.1312580E+00
          4   -1    0    0  501    0  0.00000000000E+00  0.00000000000E+00  0.39456429271E+02  0.39481973239E+02  0.14200000000E+01 0.  1.
         -4   -1    0    0    0  501 -0.00000000000E+00 -0.00000000000E+00 -0.46919526184E+02  0.46941009121E+02  0.14200000000E+01 0. -1.
         23    2    1    2    0    0  0.00000000000E+00  0.00000000000E+00 -0.74630969132E+01  0.86422982360E+02  0.86100139747E+02 0.  0.
        -11    1    3    3    0    0 -0.40916906807E+02 -0.39960636320E+01  0.90892353798E+01  0.42104346418E+02  0.51100000000E-03 0.  1.
         11    1    3    3    0    0  0.40916906807E+02  0.39960636320E+01 -0.16552332293E+02  0.44318635942E+02  0.51100000000E-03 0. -1.
<mgrwt>
<rscale>  0 0.86100140E+02</rscale>
<asrwt>0</asrwt>
<pdfrwt beam="1">  1        4 0.60738374E-02 0.86100140E+02</pdfrwt>
<pdfrwt beam="2">  1       -4 0.72220061E-02 0.86100140E+02</pdfrwt>
<totfact> 0.31900873E+04</totfact>
</mgrwt>
</event>
<event>
 5    1  0.1133829E+000  0.9136679E+02  0.7818608E-02  0.1299575E+00
          4   -1    0    0  501    0  0.00000000000E+00  0.00000000000E+00  0.14124181341E+02  0.14195383001E+02  0.14200000000E+01 0. -1.
         -4   -1    0    0    0  501 -0.00000000000E+00 -0.00000000000E+00 -0.14731270074E+03  0.14731954452E+03  0.14200000000E+01 0.  1.
         23    2    1    2    0    0  0.00000000000E+00  0.00000000000E+00 -0.13318851939E+03  0.16151492752E+03  0.91366788901E+02 0.  0.
        -11    1    3    3    0    0  0.15084155369E+01 -0.40321407496E+02 -0.28726074798E+02  0.49530582406E+02  0.51100000000E-03 0. -1.
         11    1    3    3    0    0 -0.15084155369E+01  0.40321407496E+02 -0.10446244460E+03  0.11198434512E+03  0.51100000000E-03 0.  1.
<mgrwt>
<rscale>  0 0.91366789E+02</rscale>
<asrwt>0</asrwt>
<pdfrwt beam="1">  1        4 0.21789546E-02 0.91366789E+02</pdfrwt>
<pdfrwt beam="2">  1       -4 0.22669495E-01 0.91366789E+02</pdfrwt>
<totfact> 0.22978967E+04</totfact>
</mgrwt>
</event>
<event>
 5    1  0.1133829E+000  0.9221065E+02  0.7818608E-02  0.1297585E+00
         -4   -1    0    0    0  501 -0.00000000000E+00  0.00000000000E+00  0.81591218211E+01  0.82817672566E+01  0.14200000000E+01 0.  1.
          4   -1    0    0  501    0  0.00000000000E+00 -0.00000000000E+00 -0.25846247252E+03  0.25846637325E+03  0.14200000000E+01 0. -1.
         23    2    1    2    0    0  0.00000000000E+00  0.00000000000E+00 -0.25030335069E+03  0.26674814050E+03  0.92210645224E+02 0.  0.
        -11    1    3    3    0    0 -0.35785803199E+02  0.84597978224E+01 -0.44696683990E+02  0.57879058819E+02  0.51100000000E-03 0.  1.
         11    1    3    3    0    0  0.35785803199E+02 -0.84597978224E+01 -0.20560666670E+03  0.20886908168E+03  0.51100000000E-03 0. -1.
<mgrwt>
<rscale>  0 0.92210645E+02</rscale>
<asrwt>0</asrwt>
<pdfrwt beam="2">  1        4 0.39773185E-01 0.92210645E+02</pdfrwt>
<pdfrwt beam="1">  1       -4 0.12649840E-02 0.92210645E+02</pdfrwt>
<totfact> 0.18325466E+04</totfact>
</mgrwt>
</event>
<event>
 5    1  0.1133829E+000  0.9085707E+02  0.7818608E-02  0.1300789E+00
         -4   -1    0    0    0  501 -0.00000000000E+00  0.00000000000E+00  0.31290473045E+03  0.31290795250E+03  0.14200000000E+01 0.  1.
          4   -1    0    0  501    0  0.00000000000E+00 -0.00000000000E+00 -0.65157388476E+01  0.66686769850E+01  0.14200000000E+01 0. -1.
         23    2    1    2    0    0  0.00000000000E+00  0.00000000000E+00  0.30638899160E+03  0.31957662948E+03  0.90857074232E+02 0.  0.
        -11    1    3    3    0    0 -0.43331547284E+02 -0.99743912469E+00  0.10533595146E+03  0.11390469940E+03  0.51100000000E-03 0. -1.
         11    1    3    3    0    0  0.43331547284E+02  0.99743912469E+00  0.20105304014E+03  0.20567193009E+03  0.51100000000E-03 0.  1.
<mgrwt>
<rscale>  0 0.90857074E+02</rscale>
<asrwt>0</asrwt>
<pdfrwt beam="2">  1        4 0.10144338E-02 0.90857074E+02</pdfrwt>
<pdfrwt beam="1">  1       -4 0.48151197E-01 0.90857074E+02</pdfrwt>
<totfact> 0.17400736E+04</totfact>
</mgrwt>
</event>
<event>
 5    1  0.1133829E+000  0.8248901E+02  0.7818608E-02  0.1322133E+00
         -4   -1    0    0    0  501 -0.00000000000E+00  0.00000000000E+00  0.36325689536E+03  0.36325967080E+03  0.14200000000E+01 0.  1.
          4   -1    0    0  501    0  0.00000000000E+00 -0.00000000000E+00 -0.45724327720E+01  0.47878535331E+01  0.14200000000E+01 0. -1.
         23    2    1    2    0    0  0.00000000000E+00  0.00000000000E+00  0.35868446259E+03  0.36804752433E+03  0.82489008131E+02 0.  0.
        -11    1    3    3    0    0 -0.19936411772E+02  0.34285460659E+02  0.12883228199E+03  0.13479877673E+03  0.51100000000E-03 0. -1.
         11    1    3    3    0    0  0.19936411772E+02 -0.34285460659E+02  0.22985218060E+03  0.23324874759E+03  0.51100000000E-03 0.  1.
<mgrwt>
<rscale>  0 0.82489008E+02</rscale>
<asrwt>0</asrwt>
<pdfrwt beam="2">  1        4 0.72023526E-03 0.82489008E+02</pdfrwt>
<pdfrwt beam="1">  1       -4 0.55902481E-01 0.82489008E+02</pdfrwt>
<totfact> 0.20723066E+04</totfact>
</mgrwt>
</event>
<event>
 5    1  0.1133829E+000  0.8991267E+02  0.7818608E-02  0.1303063E+00
          4   -1    0    0  501    0  0.00000000000E+00  0.00000000000E+00  0.55818342107E+01  0.57596243937E+01  0.14200000000E+01 0. -1.
         -4   -1    0    0    0  501 -0.00000000000E+00 -0.00000000000E+00 -0.35622504711E+03  0.35622787733E+03  0.14200000000E+01 0.  1.
         23    2    1    2    0    0  0.00000000000E+00  0.00000000000E+00 -0.35064321290E+03  0.36198750173E+03  0.89912672374E+02 0.  0.
        -11    1    3    3    0    0  0.43053528319E+02  0.86821442592E+01 -0.13668757538E+03  0.14357046769E+03  0.51100000000E-03 0. -1.
         11    1    3    3    0    0 -0.43053528319E+02 -0.86821442592E+01 -0.21395563752E+03  0.21841703404E+03  0.51100000000E-03 0.  1.
<mgrwt>
<rscale>  0 0.89912672E+02</rscale>
<asrwt>0</asrwt>
<pdfrwt beam="1">  1        4 0.87263788E-03 0.89912672E+02</pdfrwt>
<pdfrwt beam="2">  1       -4 0.54817730E-01 0.89912672E+02</pdfrwt>
<totfact> 0.16687533E+04</totfact>
</mgrwt>
</event>
<event>
 5    1  0.1133829E+000  0.9074088E+02  0.7818608E-02  0.1301067E+00
         -4   -1    0    0    0  501 -0.00000000000E+00  0.00000000000E+00  0.12015327382E+02  0.12098945908E+02  0.14200000000E+01 0.  1.
          4   -1    0    0  501    0  0.00000000000E+00 -0.00000000000E+00 -0.17064025436E+03  0.17064616260E+03  0.14200000000E+01 0. -1.
         23    2    1    2    0    0  0.00000000000E+00  0.00000000000E+00 -0.15862492698E+03  0.18274510851E+03  0.90740879558E+02 0.  0.
        -11    1    3    3    0    0 -0.38383964733E+02  0.73915142741E+01 -0.32926025263E+02  0.51108574347E+02  0.51100000000E-03 0.  1.
         11    1    3    3    0    0  0.38383964733E+02 -0.73915142741E+01 -0.12569890172E+03  0.13163653416E+03  0.51100000000E-03 0. -1.
<mgrwt>
<rscale>  0 0.90740880E+02</rscale>
<asrwt>0</asrwt>
<pdfrwt beam="2">  1        4 0.26259232E-01 0.90740880E+02</pdfrwt>
<pdfrwt beam="1">  1       -4 0.18553987E-02 0.90740880E+02</pdfrwt>
<totfact> 0.22414879E+04</totfact>
</mgrwt>
</event>
<event>
 5    1  0.1133829E+000  0.8905867E+02  0.7818608E-02  0.1305147E+00
          4   -1    0    0  501    0  0.00000000000E+00  0.00000000000E+00  0.16360709018E+03  0.16361325239E+03  0.14200000000E+01 0.  1.
         -4   -1    0    0    0  501 -0.00000000000E+00 -0.00000000000E+00 -0.12071650623E+02  0.12154881685E+02  0.14200000000E+01 0. -1.
         23    2    1    2    0    0  0.00000000000E+00  0.00000000000E+00  0.15153543956E+03  0.17576813408E+03  0.89058674560E+02 0.  0.
        -11    1    3    3    0    0  0.24832549479E+02  0.26546500628E+02  0.12652816796E+03  0.13164630453E+03  0.51100000000E-03 0.  1.
         11    1    3    3    0    0 -0.24832549479E+02 -0.26546500628E+02  0.25007271598E+02  0.44121829544E+02  0.51100000000E-03 0. -1.
<mgrwt>
<rscale>  0 0.89058675E+02</rscale>
<asrwt>0</asrwt>
<pdfrwt beam="1">  1        4 0.25177195E-01 0.89058675E+02</pdfrwt>
<pdfrwt beam="2">  1       -4 0.18640536E-02 0.89058675E+02</pdfrwt>
<totfact> 0.23898311E+04</totfact>
</mgrwt>
</event>
<event>
 5    1  0.1133829E+000  0.9218193E+02  0.7818608E-02  0.1297652E+00
         -4   -1    0    0    0  501 -0.00000000000E+00  0.00000000000E+00  0.29373692432E+03  0.29374035662E+03  0.14200000000E+01 0.  1.
          4   -1    0    0  501    0  0.00000000000E+00 -0.00000000000E+00 -0.71590336300E+01  0.72985041286E+01  0.14200000000E+01 0. -1.
         23    2    1    2    0    0  0.00000000000E+00  0.00000000000E+00  0.28657789069E+03  0.30103886075E+03  0.92181930171E+02 0.  0.
        -11    1    3    3    0    0  0.39089746118E+02 -0.14298519760E+02  0.20794007399E+03  0.21206491999E+03  0.51100000000E-03 0.  1.
         11    1    3    3    0    0 -0.39089746118E+02  0.14298519760E+02  0.78637816690E+02  0.88973940752E+02  0.51100000000E-03 0. -1.
<mgrwt>
<rscale>  0 0.92181930E+02</rscale>
<asrwt>0</asrwt>
<pdfrwt beam="2">  1        4 0.11123823E-02 0.92181930E+02</pdfrwt>
<pdfrwt beam="1">  1       -4 0.45201291E-01 0.92181930E+02</pdfrwt>
<totfact> 0.17276397E+04</totfact>
</mgrwt>
</event>
<event>
 5    1  0.1133829E+000  0.9412050E+02  0.7818608E-02  0.1293169E+00
          4   -1    0    0  501    0  0.00000000000E+00  0.00000000000E+00  0.10589182347E+03  0.10590134408E+03  0.14200000000E+01 0. -1.
         -4   -1    0    0    0  501 -0.00000000000E+00 -0.00000000000E+00 -0.20879854500E+02  0.20928084574E+02  0.14200000000E+01 0.  1.
         23    2    1    2    0    0  0.00000000000E+00  0.00000000000E+00  0.85011968970E+02  0.12682942865E+03  0.94120503103E+02 0.  0.
        -11    1    3    3    0    0 -0.45995187426E+02  0.92070403172E+01  0.37403088656E+02  0.59994315556E+02  0.51100000000E-03 0.  1.
         11    1    3    3    0    0  0.45995187426E+02 -0.92070403172E+01  0.47608880314E+02  0.66835113098E+02  0.51100000000E-03 0. -1.
<mgrwt>
<rscale>  0 0.94120503E+02</rscale>
<asrwt>0</asrwt>
<pdfrwt beam="1">  1        4 0.16295492E-01 0.94120503E+02</pdfrwt>
<pdfrwt beam="2">  1       -4 0.32167277E-02 0.94120503E+02</pdfrwt>
<totfact> 0.22837575E+04</totfact>
</mgrwt>
</event>
<event>
 5    1  0.1133829E+000  0.9013259E+02  0.7818608E-02  0.1302531E+00
         -4   -1    0    0    0  501 -0.00000000000E+00  0.00000000000E+00  0.77572492452E+01  0.78861470854E+01  0.14200000000E+01 0.  1.
          4   -1    0    0  501    0  0.00000000000E+00 -0.00000000000E+00 -0.25952773056E+03  0.25953161528E+03  0.14200000000E+01 0. -1.
         23    2    1    2    0    0  0.00000000000E+00  0.00000000000E+00 -0.25177048132E+03  0.26741776237E+03  0.90132593255E+02 0.  0.
        -11    1    3    3    0    0  0.40186119219E+02  0.19081948458E+02 -0.14726493409E+03  0.15383759536E+03  0.51100000000E-03 0.  1.
         11    1    3    3    0    0 -0.40186119219E+02 -0.19081948458E+02 -0.10450554723E+03  0.11358016701E+03  0.51100000000E-03 0. -1.
<mgrwt>
<rscale>  0 0.90132593E+02</rscale>
<asrwt>0</asrwt>
<pdfrwt beam="2">  1        4 0.39937551E-01 0.90132593E+02</pdfrwt>
<pdfrwt beam="1">  1       -4 0.12036372E-02 0.90132593E+02</pdfrwt>
<totfact> 0.19449333E+04</totfact>
</mgrwt>
</event>
<event>
 5    1  0.1133829E+000  0.9324472E+02  0.7818608E-02  0.1295179E+00
          4   -1    0    0  501    0  0.00000000000E+00  0.00000000000E+00  0.80166370504E+01  0.81414292110E+01  0.14200000000E+01 0.  1.
         -4   -1    0    0    0  501 -0.00000000000E+00 -0.00000000000E+00 -0.26892092911E+03  0.26892467814E+03  0.14200000000E+01 0. -1.
         23    2    1    2    0    0  0.00000000000E+00  0.00000000000E+00 -0.26090429206E+03  0.27706610735E+03  0.93244722254E+02 0.  0.
        -11    1    3    3    0    0  0.17329796192E+02 -0.36259811840E+02 -0.20067681357E+03  0.20466137715E+03  0.51100000000E-03 0. -1.
         11    1    3    3    0    0 -0.17329796192E+02  0.36259811840E+02 -0.60227478491E+02  0.72404730207E+02  0.51100000000E-03 0.  1.
<mgrwt>
<rscale>  0 0.93244722E+02</rscale>
<asrwt>0</asrwt>
<pdfrwt beam="1">  1        4 0.12432168E-02 0.93244722E+02</pdfrwt>
<pdfrwt beam="2">  1       -4 0.41382332E-01 0.93244722E+02</pdfrwt>
<totfact> 0.17465823E+04</totfact>
</mgrwt>
</event>
<event>
 5    1  0.1133829E+000  0.9979318E+02  0.7818608E-02  0.1280731E+00
          4   -1    0    0  501    0  0.00000000000E+00  0.00000000000E+00  0.80289500697E+01  0.81535537787E+01  0.14200000000E+01 0. -1.
         -4   -1    0    0    0  501 -0.00000000000E+00 -0.00000000000E+00 -0.30757271553E+03  0.30757599344E+03  0.14200000000E+01 0.  1.
         23    2    1    2    0    0  0.00000000000E+00  0.00000000000E+00 -0.29954376546E+03  0.31572954722E+03  0.99793183928E+02 0.  0.
        -11    1    3    3    0    0  0.44956334580E+02 -0.21046192441E+02 -0.13374659283E+03  0.14266101545E+03  0.51100000000E-03 0.  1.
         11    1    3    3    0    0 -0.44956334580E+02  0.21046192441E+02 -0.16579717263E+03  0.17306853177E+03  0.51100000000E-03 0. -1.
<mgrwt>
<rscale>  0 0.99793184E+02</rscale>
<asrwt>0</asrwt>
<pdfrwt beam="1">  1        4 0.12450604E-02 0.99793184E+02</pdfrwt>
<pdfrwt beam="2">  1       -4 0.47328707E-01 0.99793184E+02</pdfrwt>
<totfact> 0.13627521E+04</totfact>
</mgrwt>
</event>
<event>
 5    1  0.1133829E+000  0.8921769E+02  0.7818608E-02  0.1304757E+00
          4   -1    0    0  501    0  0.00000000000E+00  0.00000000000E+00  0.14834828238E+02  0.14902634964E+02  0.14200000000E+01 0. -1.
         -4   -1    0    0    0  501 -0.00000000000E+00 -0.00000000000E+00 -0.13376290759E+03  0.13377044459E+03  0.14200000000E+01 0.  1.
         23    2    1    2    0    0  0.00000000000E+00  0.00000000000E+00 -0.11892807935E+03  0.14867307956E+03  0.89217691781E+02 0.  0.
        -11    1    3    3    0    0  0.35875820172E+02 -0.14967968593E+02 -0.95928862265E+02  0.10350585091E+03  0.51100000000E-03 0.  1.
         11    1    3    3    0    0 -0.35875820172E+02  0.14967968593E+02 -0.22999217085E+02  0.45167228646E+02  0.51100000000E-03 0. -1.
<mgrwt>
<rscale>  0 0.89217692E+02</rscale>
<asrwt>0</asrwt>
<pdfrwt beam="1">  1        4 0.22880770E-02 0.89217692E+02</pdfrwt>
<pdfrwt beam="2">  1       -4 0.20584704E-01 0.89217692E+02</pdfrwt>
<totfact> 0.25164359E+04</totfact>
</mgrwt>
</event>
<event>
 5    1  0.1133829E+000  0.8901718E+02  0.7818608E-02  0.1305249E+00
          4   -1    0    0  501    0  0.00000000000E+00  0.00000000000E+00  0.43086584340E+02  0.43109977384E+02  0.14200000000E+01 0. -1.
         -4   -1    0    0    0  501 -0.00000000000E+00 -0.00000000000E+00 -0.45930678141E+02  0.45952623369E+02  0.14200000000E+01 0.  1.
         23    2    1    2    0    0  0.00000000000E+00  0.00000000000E+00 -0.28440938011E+01  0.89062600753E+02  0.89017178024E+02 0.  0.
        -11    1    3    3    0    0 -0.29608783030E+01 -0.42113951755E+02  0.12679923087E+02  0.44080973022E+02  0.51100000000E-03 0. -1.
         11    1    3    3    0    0  0.29608783030E+01  0.42113951755E+02 -0.15524016888E+02  0.44981627732E+02  0.51100000000E-03 0.  1.
<mgrwt>
<rscale>  0 0.89017178E+02</rscale>
<asrwt>0</asrwt>
<pdfrwt beam="1">  1        4 0.66321928E-02 0.89017178E+02</pdfrwt>
<pdfrwt beam="2">  1       -4 0.70697458E-02 0.89017178E+02</pdfrwt>
<totfact> 0.28973338E+04</totfact>
</mgrwt>
</event>
<event>
 5    1  0.1133829E+000  0.9283180E+02  0.7818608E-02  0.1296135E+00
         -4   -1    0    0    0  501 -0.00000000000E+00  0.00000000000E+00  0.19634746197E+02  0.19686026979E+02  0.14200000000E+01 0. -1.
          4   -1    0    0  501    0  0.00000000000E+00 -0.00000000000E+00 -0.10952667579E+03  0.10953588047E+03  0.14200000000E+01 0.  1.
         23    2    1    2    0    0  0.00000000000E+00  0.00000000000E+00 -0.89891929594E+02  0.12922190745E+03  0.92831796050E+02 0.  0.
        -11    1    3    3    0    0 -0.25520992919E+02 -0.15135205756E+02  0.47396806218E+01  0.30047630614E+02  0.51100000000E-03 0. -1.
         11    1    3    3    0    0  0.25520992919E+02  0.15135205756E+02 -0.94631610215E+02  0.99174276832E+02  0.51100000000E-03 0.  1.
<mgrwt>
<rscale>  0 0.92831796E+02</rscale>
<asrwt>0</asrwt>
<pdfrwt beam="2">  1        4 0.16854910E-01 0.92831796E+02</pdfrwt>
<pdfrwt beam="1">  1       -4 0.30253830E-02 0.92831796E+02</pdfrwt>
<totfact> 0.23583547E+04</totfact>
</mgrwt>
</event>
<event>
 5    1  0.1133829E+000  0.9092875E+02  0.7818608E-02  0.1300618E+00
         -4   -1    0    0    0  501 -0.00000000000E+00  0.00000000000E+00  0.62959441176E+02  0.62975452624E+02  0.14200000000E+01 0. -1.
          4   -1    0    0  501    0  0.00000000000E+00 -0.00000000000E+00 -0.32795259309E+02  0.32825987162E+02  0.14200000000E+01 0.  1.
         23    2    1    2    0    0  0.00000000000E+00  0.00000000000E+00  0.30164181867E+02  0.95801439786E+02  0.90928752314E+02 0.  0.
        -11    1    3    3    0    0 -0.24977004281E+02  0.10061307801E+02  0.53677491061E+02  0.60052924195E+02  0.51100000000E-03 0. -1.
         11    1    3    3    0    0  0.24977004281E+02 -0.10061307801E+02 -0.23513309194E+02  0.35748515592E+02  0.51100000000E-03 0.  1.
<mgrwt>
<rscale>  0 0.90928752E+02</rscale>
<asrwt>0</asrwt>
<pdfrwt beam="2">  1        4 0.50490199E-02 0.90928752E+02</pdfrwt>
<pdfrwt beam="1">  1       -4 0.96896631E-02 0.90928752E+02</pdfrwt>
<totfact> 0.26919131E+04</totfact>
</mgrwt>
</event>
<event>
 5    1  0.1133829E+000  0.9695362E+02  0.7818608E-02  0.1286836E+00
         -4   -1    0    0    0  501 -0.00000000000E+00  0.00000000000E+00  0.11851262065E+02  0.11936030015E+02  0.14200000000E+01 0.  1.
          4   -1    0    0  501    0  0.00000000000E+00 -0.00000000000E+00 -0.19749726965E+03  0.19750237446E+03  0.14200000000E+01 0. -1.
         23    2    1    2    0    0  0.00000000000E+00  0.00000000000E+00 -0.18564600758E+03  0.20943840448E+03  0.96953623649E+02 0.  0.
        -11    1    3    3    0    0  0.33243846960E+02 -0.34896411505E+02 -0.81579961246E+02  0.94753379749E+02  0.51100000000E-03 0.  1.
         11    1    3    3    0    0 -0.33243846960E+02  0.34896411505E+02 -0.10406604634E+03  0.11468502473E+03  0.51100000000E-03 0. -1.
<mgrwt>
<rscale>  0 0.96953624E+02</rscale>
<asrwt>0</asrwt>
<pdfrwt beam="2">  1        4 0.30391106E-01 0.96953624E+02</pdfrwt>
<pdfrwt beam="1">  1       -4 0.18301845E-02 0.96953624E+02</pdfrwt>
<totfact> 0.17799973E+04</totfact>
</mgrwt>
</event>
<event>
 5    1  0.1133829E+000  0.9003144E+02  0.7818608E-02  0.1302776E+00
          4   -1    0    0  501    0  0.00000000000E+00  0.00000000000E+00  0.18844513909E+02  0.18897939159E+02  0.14200000000E+01 0. -1.
         -4   -1    0    0    0  501 -0.00000000000E+00 -0.00000000000E+00 -0.10732308805E+03  0.10733248170E+03  0.14200000000E+01 0.  1.
         23    2    1    2    0    0  0.00000000000E+00  0.00000000000E+00 -0.88478574140E+02  0.12623042086E+03  0.90031444890E+02 0.  0.
        -11    1    3    3    0    0 -0.40683443527E+02 -0.19118044422E+02 -0.47608070703E+02  0.65476488880E+02  0.51100000000E-03 0.  1.
         11    1    3    3    0    0  0.40683443527E+02  0.19118044422E+02 -0.40870503437E+02  0.60753931981E+02  0.51100000000E-03 0. -1.
<mgrwt>
<rscale>  0 0.90031445E+02</rscale>
<asrwt>0</asrwt>
<pdfrwt beam="1">  1        4 0.29039883E-02 0.90031445E+02</pdfrwt>
<pdfrwt beam="2">  1       -4 0.16516076E-01 0.90031445E+02</pdfrwt>
<totfact> 0.25787333E+04</totfact>
</mgrwt>
</event>
<event>
 5    1  0.1133829E+000  0.9048939E+02  0.7818608E-02  0.1301671E+00
          4   -1    0    0  501    0  0.00000000000E+00  0.00000000000E+00  0.53414595972E+01  0.55269874822E+01  0.14200000000E+01 0. -1.
         -4   -1    0    0    0  501 -0.00000000000E+00 -0.00000000000E+00 -0.37651506017E+03  0.37651773788E+03  0.14200000000E+01 0.  1.
         23    2    1    2    0    0  0.00000000000E+00  0.00000000000E+00 -0.37117360057E+03  0.38204472536E+03  0.90489393917E+02 0.  0.
        -11    1    3    3    0    0 -0.37368213357E+02 -0.25251398917E+02 -0.20084802129E+03  0.20584932396E+03  0.51100000000E-03 0. -1.
         11    1    3    3    0    0  0.37368213357E+02  0.25251398917E+02 -0.17032557928E+03  0.17619540140E+03  0.51100000000E-03 0.  1.
<mgrwt>
<rscale>  0 0.90489394E+02</rscale>
<asrwt>0</asrwt>
<pdfrwt beam="1">  1        4 0.83624066E-03 0.90489394E+02</pdfrwt>
<pdfrwt beam="2">  1       -4 0.57939851E-01 0.90489394E+02</pdfrwt>
<totfact> 0.15894217E+04</totfact>
</mgrwt>
</event>
<event>
 5    1  0.1133829E+000  0.8848560E+02  0.7818608E-02  0.1306561E+00
         -4   -1    0    0    0  501 -0.00000000000E+00  0.00000000000E+00  0.20589439315E+03  0.20589928978E+03  0.14200000000E+01 0.  1.
          4   -1    0    0  501    0  0.00000000000E+00 -0.00000000000E+00 -0.94488761486E+01  0.95549809247E+01  0.14200000000E+01 0. -1.
         23    2    1    2    0    0  0.00000000000E+00  0.00000000000E+00  0.19644551700E+03  0.21545427070E+03  0.88485601165E+02 0.  0.
        -11    1    3    3    0    0  0.24168020788E+02 -0.36840990892E+02  0.10798475390E+03  0.11662786509E+03  0.51100000000E-03 0.  1.
         11    1    3    3    0    0 -0.24168020788E+02  0.36840990892E+02  0.88460763099E+02  0.98826405616E+02  0.51100000000E-03 0. -1.
<mgrwt>
<rscale>  0 0.88485601E+02</rscale>
<asrwt>0</asrwt>
<pdfrwt beam="2">  1        4 0.14622119E-02 0.88485601E+02</pdfrwt>
<pdfrwt beam="1">  1       -4 0.31684597E-01 0.88485601E+02</pdfrwt>
<totfact> 0.22482027E+04</totfact>
</mgrwt>
</event>
<event>
 5    1  0.1133829E+000  0.9670795E+02  0.7818608E-02  0.1287375E+00
         -4   -1    0    0    0  501 -0.00000000000E+00  0.00000000000E+00  0.10219728718E+03  0.10220715193E+03  0.14200000000E+01 0.  1.
          4   -1    0    0  501    0  0.00000000000E+00 -0.00000000000E+00 -0.22845353025E+02  0.22889441995E+02  0.14200000000E+01 0. -1.
         23    2    1    2    0    0  0.00000000000E+00  0.00000000000E+00  0.79351934152E+02  0.12509659393E+03  0.96707953958E+02 0.  0.
        -11    1    3    3    0    0 -0.36459145140E+02  0.20035937601E+02  0.71556115661E+02  0.82770681698E+02  0.51100000000E-03 0.  1.
         11    1    3    3    0    0  0.36459145140E+02 -0.20035937601E+02  0.77958184903E+01  0.42325912230E+02  0.51100000000E-03 0. -1.
<mgrwt>
<rscale>  0 0.96707954E+02</rscale>
<asrwt>0</asrwt>
<pdfrwt beam="2">  1        4 0.35188200E-02 0.96707954E+02</pdfrwt>
<pdfrwt beam="1">  1       -4 0.15726810E-01 0.96707954E+02</pdfrwt>
<totfact> 0.21294520E+04</totfact>
</mgrwt>
</event>
<event>
 5    1  0.1133829E+000  0.9001262E+02  0.7818608E-02  0.1302821E+00
          4   -1    0    0  501    0  0.00000000000E+00  0.00000000000E+00  0.21242488412E+03  0.21242963021E+03  0.14200000000E+01 0.  1.
         -4   -1    0    0    0  501 -0.00000000000E+00 -0.00000000000E+00 -0.94777082015E+01  0.95834937655E+01  0.14200000000E+01 0. -1.
         23    2    1    2    0    0  0.00000000000E+00  0.00000000000E+00  0.20294717592E+03  0.22201312398E+03  0.90012615817E+02 0.  0.
        -11    1    3    3    0    0  0.24906632626E+02  0.25749961872E+02  0.34280276322E+02  0.49583648818E+02  0.51100000000E-03 0. -1.
         11    1    3    3    0    0 -0.24906632626E+02 -0.25749961872E+02  0.16866689959E+03  0.17242947516E+03  0.51100000000E-03 0.  1.
<mgrwt>
<rscale>  0 0.90012616E+02</rscale>
<asrwt>0</asrwt>
<pdfrwt beam="1">  1        4 0.32689253E-01 0.90012616E+02</pdfrwt>
<pdfrwt beam="2">  1       -4 0.14666114E-02 0.90012616E+02</pdfrwt>
<totfact> 0.21215049E+04</totfact>
</mgrwt>
</event>
<event>
 5    1  0.1133829E+000  0.9099056E+02  0.7818608E-02  0.1300470E+00
          4   -1    0    0  501    0  0.00000000000E+00  0.00000000000E+00  0.15639158721E+02  0.15703492781E+02  0.14200000000E+01 0.  1.
         -4   -1    0    0    0  501 -0.00000000000E+00 -0.00000000000E+00 -0.13200877018E+03  0.13201640733E+03  0.14200000000E+01 0. -1.
         23    2    1    2    0    0  0.00000000000E+00  0.00000000000E+00 -0.11636961146E+03  0.14771990011E+03  0.90990562245E+02 0.  0.
        -11    1    3    3    0    0 -0.29848936617E+02 -0.33785198691E+02 -0.68116098495E+02  0.81683545113E+02  0.51100000000E-03 0.  1.
         11    1    3    3    0    0  0.29848936617E+02  0.33785198691E+02 -0.48253512961E+02  0.66036354996E+02  0.51100000000E-03 0. -1.
<mgrwt>
<rscale>  0 0.90990562E+02</rscale>
<asrwt>0</asrwt>
<pdfrwt beam="1">  1        4 0.24115608E-02 0.90990562E+02</pdfrwt>
<pdfrwt beam="2">  1       -4 0.20314577E-01 0.90990562E+02</pdfrwt>
<totfact> 0.23919519E+04</totfact>
</mgrwt>
</event>
<event>
 5    1  0.1133829E+000  0.9095099E+02  0.7818608E-02  0.1300565E+00
          4   -1    0    0  501    0  0.00000000000E+00  0.00000000000E+00  0.10377878331E+03  0.10378849775E+03  0.14200000000E+01 0. -1.
         -4   -1    0    0    0  501 -0.00000000000E+00 -0.00000000000E+00 -0.19891241826E+02  0.19941863036E+02  0.14200000000E+01 0.  1.
         23    2    1    2    0    0  0.00000000000E+00  0.00000000000E+00  0.83887541487E+02  0.12373036079E+03  0.90950989903E+02 0.  0.
        -11    1    3    3    0    0 -0.27792218256E+02 -0.21339119025E+02  0.25094408792E+01  0.35129228431E+02  0.51100000000E-03 0.  1.
         11    1    3    3    0    0  0.27792218256E+02  0.21339119025E+02  0.81378100607E+02  0.88601132358E+02  0.51100000000E-03 0. -1.
<mgrwt>
<rscale>  0 0.90950990E+02</rscale>
<asrwt>0</asrwt>
<pdfrwt beam="1">  1        4 0.15970608E-01 0.90950990E+02</pdfrwt>
<pdfrwt beam="2">  1       -4 0.30648322E-02 0.90950990E+02</pdfrwt>
<totfact> 0.25231415E+04</totfact>
</mgrwt>
</event>
<event>
 5    1  0.1133829E+000  0.8933065E+02  0.7818608E-02  0.1304481E+00
         -4   -1    0    0    0  501 -0.00000000000E+00  0.00000000000E+00  0.70111351359E+02  0.70125729867E+02  0.14200000000E+01 0. -1.
          4   -1    0    0  501    0  0.00000000000E+00 -0.00000000000E+00 -0.28419590051E+02  0.28455043466E+02  0.14200000000E+01 0.  1.
         23    2    1    2    0    0  0.00000000000E+00  0.00000000000E+00  0.41691761308E+02  0.98580773333E+02  0.89330654929E+02 0.  0.
        -11    1    3    3    0    0  0.12744416774E+02 -0.21209497423E+02 -0.20189660567E+02  0.31935643628E+02  0.51100000000E-03 0.  1.
         11    1    3    3    0    0 -0.12744416774E+02  0.21209497423E+02  0.61881421876E+02  0.66645129705E+02  0.51100000000E-03 0. -1.
<mgrwt>
<rscale>  0 0.89330655E+02</rscale>
<asrwt>0</asrwt>
<pdfrwt beam="2">  1        4 0.43760779E-02 0.89330655E+02</pdfrwt>
<pdfrwt beam="1">  1       -4 0.10790195E-01 0.89330655E+02</pdfrwt>
<totfact> 0.28055296E+04</totfact>
</mgrwt>
</event>
<event>
 5    1  0.1133829E+000  0.9110496E+02  0.7818608E-02  0.1300198E+00
          4   -1    0    0  501    0  0.00000000000E+00  0.00000000000E+00  0.42378111927E+02  0.42401895836E+02  0.14200000000E+01 0. -1.
         -4   -1    0    0    0  501 -0.00000000000E+00 -0.00000000000E+00 -0.48916796475E+02  0.48937402642E+02  0.14200000000E+01 0.  1.
         23    2    1    2    0    0  0.00000000000E+00  0.00000000000E+00 -0.65386845481E+01  0.91339298478E+02  0.91104956237E+02 0.  0.
        -11    1    3    3    0    0  0.14439948055E+02  0.28061790545E+02  0.29664080536E+02  0.43312052165E+02  0.51100000000E-03 0. -1.
         11    1    3    3    0    0 -0.14439948055E+02 -0.28061790545E+02 -0.36202765084E+02  0.48027246313E+02  0.51100000000E-03 0.  1.
<mgrwt>
<rscale>  0 0.91104956E+02</rscale>
<asrwt>0</asrwt>
<pdfrwt beam="1">  1        4 0.65231241E-02 0.91104956E+02</pdfrwt>
<pdfrwt beam="2">  1       -4 0.75290756E-02 0.91104956E+02</pdfrwt>
<totfact> 0.27063850E+04</totfact>
</mgrwt>
</event>
<event>
 5    1  0.1133829E+000  0.8913203E+02  0.7818608E-02  0.1304967E+00
         -4   -1    0    0    0  501 -0.00000000000E+00  0.00000000000E+00  0.19523601636E+03  0.19524118030E+03  0.14200000000E+01 0.  1.
          4   -1    0    0  501    0  0.00000000000E+00 -0.00000000000E+00 -0.10118090784E+02  0.10217248216E+02  0.14200000000E+01 0. -1.
         23    2    1    2    0    0  0.00000000000E+00  0.00000000000E+00  0.18511792557E+03  0.20545842851E+03  0.89132033959E+02 0.  0.
        -11    1    3    3    0    0  0.30014447977E+02  0.31196021706E+02  0.11696160153E+03  0.12471597769E+03  0.51100000000E-03 0.  1.
         11    1    3    3    0    0 -0.30014447977E+02 -0.31196021706E+02  0.68156324041E+02  0.80742450822E+02  0.51100000000E-03 0. -1.
<mgrwt>
<rscale>  0 0.89132034E+02</rscale>
<asrwt>0</asrwt>
<pdfrwt beam="2">  1        4 0.15646541E-02 0.89132034E+02</pdfrwt>
<pdfrwt beam="1">  1       -4 0.30044334E-01 0.89132034E+02</pdfrwt>
<totfact> 0.22479988E+04</totfact>
</mgrwt>
</event>
<event>
 5    1  0.1133829E+000  0.9309617E+02  0.7818608E-02  0.1295522E+00
          4   -1    0    0  501    0  0.00000000000E+00  0.00000000000E+00  0.18833058251E+03  0.18833593578E+03  0.14200000000E+01 0.  1.
         -4   -1    0    0    0  501 -0.00000000000E+00 -0.00000000000E+00 -0.11455545086E+02  0.11543219361E+02  0.14200000000E+01 0. -1.
         23    2    1    2    0    0  0.00000000000E+00  0.00000000000E+00  0.17687503742E+03  0.19987915514E+03  0.93096174992E+02 0.  0.
        -11    1    3    3    0    0  0.23401028013E+02 -0.17742837717E+02  0.16597751114E+03  0.16855548228E+03  0.51100000000E-03 0.  1.
         11    1    3    3    0    0 -0.23401028013E+02  0.17742837717E+02  0.10897526281E+02  0.31323672863E+02  0.51100000000E-03 0. -1.
<mgrwt>
<rscale>  0 0.93096175E+02</rscale>
<asrwt>0</asrwt>
<pdfrwt beam="1">  1        4 0.28981090E-01 0.93096175E+02</pdfrwt>
<pdfrwt beam="2">  1       -4 0.17695476E-02 0.93096175E+02</pdfrwt>
<totfact> 0.20227385E+04</totfact>
</mgrwt>
</event>
<event>
 5    1  0.1133829E+000  0.9282367E+02  0.7818608E-02  0.1296154E+00
          4   -1    0    0  501    0  0.00000000000E+00  0.00000000000E+00  0.12902068330E+02  0.12979975624E+02  0.14200000000E+01 0. -1.
         -4   -1    0    0    0  501 -0.00000000000E+00 -0.00000000000E+00 -0.16637101105E+03  0.16637707089E+03  0.14200000000E+01 0.  1.
         23    2    1    2    0    0  0.00000000000E+00  0.00000000000E+00 -0.15346894272E+03  0.17935704652E+03  0.92823670229E+02 0.  0.
        -11    1    3    3    0    0 -0.70561832263E+01  0.36897044104E+02 -0.24069952515E+02  0.44615515235E+02  0.51100000000E-03 0. -1.
         11    1    3    3    0    0  0.70561832263E+01 -0.36897044104E+02 -0.12939899021E+03  0.13474153128E+03  0.51100000000E-03 0.  1.
<mgrwt>
<rscale>  0 0.92823670E+02</rscale>
<asrwt>0</asrwt>
<pdfrwt beam="1">  1        4 0.19913927E-02 0.92823670E+02</pdfrwt>
<pdfrwt beam="2">  1       -4 0.25601998E-01 0.92823670E+02</pdfrwt>
<totfact> 0.21232682E+04</totfact>
</mgrwt>
</event>
<event>
 5    1  0.1133829E+000  0.8622655E+02  0.7818608E-02  0.1312256E+00
          4   -1    0    0  501    0  0.00000000000E+00  0.00000000000E+00  0.52208706061E+02  0.52228013446E+02  0.14200000000E+01 0. -1.
         -4   -1    0    0    0  501 -0.00000000000E+00 -0.00000000000E+00 -0.35562323606E+02  0.35590662543E+02  0.14200000000E+01 0.  1.
         23    2    1    2    0    0  0.00000000000E+00  0.00000000000E+00  0.16646382455E+02  0.87818675989E+02  0.86226549297E+02 0.  0.
        -11    1    3    3    0    0  0.30318594639E+02 -0.50600738304E+01 -0.22466337378E+02  0.38073059287E+02  0.51100000000E-03 0.  1.
         11    1    3    3    0    0 -0.30318594639E+02  0.50600738304E+01  0.39112719833E+02  0.49745616702E+02  0.51100000000E-03 0. -1.
<mgrwt>
<rscale>  0 0.86226549E+02</rscale>
<asrwt>0</asrwt>
<pdfrwt beam="1">  1        4 0.80357737E-02 0.86226549E+02</pdfrwt>
<pdfrwt beam="2">  1       -4 0.54747918E-02 0.86226549E+02</pdfrwt>
<totfact> 0.31666724E+04</totfact>
</mgrwt>
</event>
<event>
 5    1  0.1133829E+000  0.8889267E+02  0.7818608E-02  0.1305556E+00
          4   -1    0    0  501    0  0.00000000000E+00  0.00000000000E+00  0.14892838841E+03  0.14893515795E+03  0.14200000000E+01 0. -1.
         -4   -1    0    0    0  501 -0.00000000000E+00 -0.00000000000E+00 -0.13219511805E+02  0.13295559122E+02  0.14200000000E+01 0.  1.
         23    2    1    2    0    0  0.00000000000E+00  0.00000000000E+00  0.13570887661E+03  0.16223071708E+03  0.88892667713E+02 0.  0.
        -11    1    3    3    0    0 -0.25803167960E+02  0.90854715045E+01  0.13178550655E+03  0.13459483276E+03  0.51100000000E-03 0. -1.
         11    1    3    3    0    0  0.25803167960E+02 -0.90854715045E+01  0.39233700621E+01  0.27635884320E+02  0.51100000000E-03 0.  1.
<mgrwt>
<rscale>  0 0.88892668E+02</rscale>
<asrwt>0</asrwt>
<pdfrwt beam="1">  1        4 0.22918430E-01 0.88892668E+02</pdfrwt>
<pdfrwt beam="2">  1       -4 0.20401416E-02 0.88892668E+02</pdfrwt>
<totfact> 0.24696036E+04</totfact>
</mgrwt>
</event>
<event>
 5    1  0.1133829E+000  0.8630482E+02  0.7818608E-02  0.1312055E+00
         -4   -1    0    0    0  501 -0.00000000000E+00  0.00000000000E+00  0.92522769716E+02  0.92533665852E+02  0.14200000000E+01 0.  1.
          4   -1    0    0  501    0  0.00000000000E+00 -0.00000000000E+00 -0.20089043846E+02  0.20139167874E+02  0.14200000000E+01 0. -1.
         23    2    1    2    0    0  0.00000000000E+00  0.00000000000E+00  0.72433725871E+02  0.11267283373E+03  0.86304824988E+02 0.  0.
        -11    1    3    3    0    0 -0.30811261981E+02  0.29866559450E+02  0.30264847909E+02  0.52510058631E+02  0.51100000000E-03 0. -1.
         11    1    3    3    0    0  0.30811261981E+02 -0.29866559450E+02  0.42168877961E+02  0.60162775094E+02  0.51100000000E-03 0.  1.
<mgrwt>
<rscale>  0 0.86304825E+02</rscale>
<asrwt>0</asrwt>
<pdfrwt beam="2">  1        4 0.30953160E-02 0.86304825E+02</pdfrwt>
<pdfrwt beam="1">  1       -4 0.14238966E-01 0.86304825E+02</pdfrwt>
<totfact> 0.29784956E+04</totfact>
</mgrwt>
</event>
<event>
 5    1  0.1133829E+000  0.9151046E+02  0.7818608E-02  0.1299235E+00
          4   -1    0    0  501    0  0.00000000000E+00  0.00000000000E+00  0.16681378819E+02  0.16741708375E+02  0.14200000000E+01 0. -1.
         -4   -1    0    0    0  501 -0.00000000000E+00 -0.00000000000E+00 -0.12521077864E+03  0.12521883041E+03  0.14200000000E+01 0.  1.
         23    2    1    2    0    0  0.00000000000E+00  0.00000000000E+00 -0.10852939982E+03  0.14196053878E+03  0.91510458118E+02 0.  0.
        -11    1    3    3    0    0 -0.42721355783E+02 -0.15434766647E+02 -0.62789072929E+02  0.77497186664E+02  0.51100000000E-03 0.  1.
         11    1    3    3    0    0  0.42721355783E+02  0.15434766647E+02 -0.45740326895E+02  0.64463352117E+02  0.51100000000E-03 0. -1.
<mgrwt>
<rscale>  0 0.91510458E+02</rscale>
<asrwt>0</asrwt>
<pdfrwt beam="1">  1        4 0.25716262E-02 0.91510458E+02</pdfrwt>
<pdfrwt beam="2">  1       -4 0.19268456E-01 0.91510458E+02</pdfrwt>
<totfact> 0.23846970E+04</totfact>
</mgrwt>
</event>
<event>
 5    1  0.1133829E+000  0.9275779E+02  0.7818608E-02  0.1296307E+00
          4   -1    0    0  501    0  0.00000000000E+00  0.00000000000E+00  0.62966825058E+02  0.62982834629E+02  0.14200000000E+01 0. -1.
         -4   -1    0    0    0  501 -0.00000000000E+00 -0.00000000000E+00 -0.34125753956E+02  0.34155284849E+02  0.14200000000E+01 0.  1.
         23    2    1    2    0    0  0.00000000000E+00  0.00000000000E+00  0.28841071101E+02  0.97138119477E+02  0.92757786052E+02 0.  0.
        -11    1    3    3    0    0 -0.36016429584E+02  0.21201835063E+02 -0.66362254696E+01  0.42317141902E+02  0.51100000000E-03 0.  1.
         11    1    3    3    0    0  0.36016429584E+02 -0.21201835063E+02  0.35477296571E+02  0.54820977575E+02  0.51100000000E-03 0. -1.
<mgrwt>
<rscale>  0 0.92757786E+02</rscale>
<asrwt>0</asrwt>
<pdfrwt beam="1">  1        4 0.96907069E-02 0.92757786E+02</pdfrwt>
<pdfrwt beam="2">  1       -4 0.52536192E-02 0.92757786E+02</pdfrwt>
<totfact> 0.25419930E+04</totfact>
</mgrwt>
</event>
<event>
 5    1  0.1133829E+000  0.9075761E+02  0.7818608E-02  0.1301027E+00
         -4   -1    0    0    0  501 -0.00000000000E+00  0.00000000000E+00  0.22195489824E+03  0.22195944056E+03  0.14200000000E+01 0.  1.
          4   -1    0    0  501    0  0.00000000000E+00 -0.00000000000E+00 -0.92187239675E+01  0.93274472171E+01  0.14200000000E+01 0. -1.
         23    2    1    2    0    0  0.00000000000E+00  0.00000000000E+00  0.21273617428E+03  0.23128688778E+03  0.90757614626E+02 0.  0.
        -11    1    3    3    0    0  0.27332598496E+02  0.24518579438E+02  0.38415795685E+02  0.53141368411E+02  0.51100000000E-03 0. -1.
         11    1    3    3    0    0 -0.27332598496E+02 -0.24518579438E+02  0.17432037859E+03  0.17814551937E+03  0.51100000000E-03 0.  1.
<mgrwt>
<rscale>  0 0.90757615E+02</rscale>
<asrwt>0</asrwt>
<pdfrwt beam="2">  1        4 0.14269781E-02 0.90757615E+02</pdfrwt>
<pdfrwt beam="1">  1       -4 0.34155618E-01 0.90757615E+02</pdfrwt>
<totfact> 0.20395799E+04</totfact>
</mgrwt>
</event>
<event>
 5    1  0.1133829E+000  0.9134525E+02  0.7818608E-02  0.1299626E+00
          4   -1    0    0  501    0  0.00000000000E+00  0.00000000000E+00  0.81766793999E+02  0.81779123259E+02  0.14200000000E+01 0. -1.
         -4   -1    0    0    0  501 -0.00000000000E+00 -0.00000000000E+00 -0.25477412740E+02  0.25516954362E+02  0.14200000000E+01 0.  1.
         23    2    1    2    0    0  0.00000000000E+00  0.00000000000E+00  0.56289381260E+02  0.10729607762E+03  0.91345245252E+02 0.  0.
        -11    1    3    3    0    0  0.33896570830E+02  0.23598749310E+02  0.51045589699E+02  0.65662247228E+02  0.51100000000E-03 0. -1.
         11    1    3    3    0    0 -0.33896570830E+02 -0.23598749310E+02  0.52437915606E+01  0.41633830393E+02  0.51100000000E-03 0.  1.
<mgrwt>
<rscale>  0 0.91345245E+02</rscale>
<asrwt>0</asrwt>
<pdfrwt beam="1">  1        4 0.12583497E-01 0.91345245E+02</pdfrwt>
<pdfrwt beam="2">  1       -4 0.39235920E-02 0.91345245E+02</pdfrwt>
<totfact> 0.25884061E+04</totfact>
</mgrwt>
</event>
<event>
 5    1  0.1133829E+000  0.9493515E+02  0.7818608E-02  0.1291322E+00
         -4   -1    0    0    0  501 -0.00000000000E+00  0.00000000000E+00  0.30207321764E+03  0.30207655522E+03  0.14200000000E+01 0.  1.
          4   -1    0    0  501    0  0.00000000000E+00 -0.00000000000E+00 -0.73880287395E+01  0.75232551901E+01  0.14200000000E+01 0. -1.
         23    2    1    2    0    0  0.00000000000E+00  0.00000000000E+00  0.29468518890E+03  0.30959981041E+03  0.94935146550E+02 0.  0.
        -11    1    3    3    0    0 -0.19113729553E+02  0.42672041325E+02  0.17402303376E+03  0.18019504446E+03  0.51100000000E-03 0.  1.
         11    1    3    3    0    0  0.19113729553E+02 -0.42672041325E+02  0.12066215514E+03  0.12940476595E+03  0.51100000000E-03 0. -1.
<mgrwt>
<rscale>  0 0.94935147E+02</rscale>
<asrwt>0</asrwt>
<pdfrwt beam="2">  1        4 0.11472784E-02 0.94935147E+02</pdfrwt>
<pdfrwt beam="1">  1       -4 0.46483469E-01 0.94935147E+02</pdfrwt>
<totfact> 0.15740232E+04</totfact>
</mgrwt>
</event>
<event>
 5    1  0.1133829E+000  0.1047457E+03  0.7818608E-02  0.1270621E+00
         -4   -1    0    0    0  501 -0.00000000000E+00  0.00000000000E+00  0.12412067896E+03  0.12412880144E+03  0.14200000000E+01 0. -1.
          4   -1    0    0  501    0  0.00000000000E+00 -0.00000000000E+00 -0.22067119970E+02  0.22112760654E+02  0.14200000000E+01 0.  1.
         23    2    1    2    0    0  0.00000000000E+00  0.00000000000E+00  0.10205355899E+03  0.14624156209E+03  0.10474571867E+03 0.  0.
        -11    1    3    3    0    0  0.17454811754E+02 -0.21382466130E+02  0.11316813603E+03  0.11648565286E+03  0.51100000000E-03 0. -1.
         11    1    3    3    0    0 -0.17454811754E+02  0.21382466130E+02 -0.11114577032E+02  0.29755909229E+02  0.51100000000E-03 0.  1.
<mgrwt>
<rscale>  0 0.10474572E+03</rscale>
<asrwt>0</asrwt>
<pdfrwt beam="2">  1        4 0.33990770E-02 0.10474572E+03</pdfrwt>
<pdfrwt beam="1">  1       -4 0.19099625E-01 0.10474572E+03</pdfrwt>
<totfact> 0.16361061E+04</totfact>
</mgrwt>
</event>
<event>
 5    1  0.1133829E+000  0.9304276E+02  0.7818608E-02  0.1295646E+00
          4   -1    0    0  501    0  0.00000000000E+00  0.00000000000E+00  0.55162553638E+02  0.55180827503E+02  0.14200000000E+01 0.  1.
         -4   -1    0    0    0  501 -0.00000000000E+00 -0.00000000000E+00 -0.39196210723E+02  0.39221924163E+02  0.14200000000E+01 0. -1.
         23    2    1    2    0    0  0.00000000000E+00  0.00000000000E+00  0.15966342915E+02  0.94402751666E+02  0.93042761223E+02 0.  0.
        -11    1    3    3    0    0 -0.27832384417E+02 -0.35164826364E+00 -0.29837323556E+02  0.40804793297E+02  0.51100000000E-03 0. -1.
         11    1    3    3    0    0  0.27832384417E+02  0.35164826364E+00  0.45803666471E+02  0.53597958368E+02  0.51100000000E-03 0.  1.
<mgrwt>
<rscale>  0 0.93042761E+02</rscale>
<asrwt>0</asrwt>
<pdfrwt beam="1">  1        4 0.84899303E-02 0.93042761E+02</pdfrwt>
<pdfrwt beam="2">  1       -4 0.60335699E-02 0.93042761E+02</pdfrwt>
<totfact> 0.25371862E+04</totfact>
</mgrwt>
</event>
<event>
 5    1  0.1133829E+000  0.9072938E+02  0.7818608E-02  0.1301095E+00
          4   -1    0    0  501    0  0.00000000000E+00  0.00000000000E+00  0.58468818892E+01  0.60168453384E+01  0.14200000000E+01 0. -1.
         -4   -1    0    0    0  501 -0.00000000000E+00 -0.00000000000E+00 -0.34676087453E+03  0.34676378199E+03  0.14200000000E+01 0.  1.
         23    2    1    2    0    0  0.00000000000E+00  0.00000000000E+00 -0.34091399264E+03  0.35278062733E+03  0.90729381375E+02 0.  0.
        -11    1    3    3    0    0 -0.31049023121E+02 -0.28382040366E+02 -0.23648591090E+03  0.24019818506E+03  0.51100000000E-03 0.  1.
         11    1    3    3    0    0  0.31049023121E+02  0.28382040366E+02 -0.10442808173E+03  0.11258244227E+03  0.51100000000E-03 0. -1.
<mgrwt>
<rscale>  0 0.90729381E+02</rscale>
<asrwt>0</asrwt>
<pdfrwt beam="1">  1        4 0.91281832E-03 0.90729381E+02</pdfrwt>
<pdfrwt beam="2">  1       -4 0.53361109E-01 0.90729381E+02</pdfrwt>
<totfact> 0.16536935E+04</totfact>
</mgrwt>
</event>
<event>
 5    1  0.1133829E+000  0.9114733E+02  0.7818608E-02  0.1300097E+00
         -4   -1    0    0    0  501 -0.00000000000E+00  0.00000000000E+00  0.10701072396E+03  0.10702014503E+03  0.14200000000E+01 0.  1.
          4   -1    0    0  501    0  0.00000000000E+00 -0.00000000000E+00 -0.19372624524E+02  0.19424597317E+02  0.14200000000E+01 0. -1.
         23    2    1    2    0    0  0.00000000000E+00  0.00000000000E+00  0.87638099432E+02  0.12644474234E+03  0.91147333446E+02 0.  0.
        -11    1    3    3    0    0  0.27589210503E+02 -0.18480030440E+02  0.87120194546E+02  0.93234137307E+02  0.51100000000E-03 0.  1.
         11    1    3    3    0    0 -0.27589210503E+02  0.18480030440E+02  0.51790488576E+00  0.33210605038E+02  0.51100000000E-03 0. -1.
<mgrwt>
<rscale>  0 0.91147333E+02</rscale>
<asrwt>0</asrwt>
<pdfrwt beam="2">  1        4 0.29851264E-02 0.91147333E+02</pdfrwt>
<pdfrwt beam="1">  1       -4 0.16467911E-01 0.91147333E+02</pdfrwt>
<totfact> 0.24934250E+04</totfact>
</mgrwt>
</event>
<event>
 5    1  0.1133829E+000  0.9050903E+02  0.7818608E-02  0.1301624E+00
         -4   -1    0    0    0  501 -0.00000000000E+00  0.00000000000E+00  0.70495933252E+02  0.70510233336E+02  0.14200000000E+01 0.  1.
          4   -1    0    0  501    0  0.00000000000E+00 -0.00000000000E+00 -0.29016302839E+02  0.29051028045E+02  0.14200000000E+01 0. -1.
         23    2    1    2    0    0  0.00000000000E+00  0.00000000000E+00  0.41479630413E+02  0.99561261380E+02  0.90509032856E+02 0.  0.
        -11    1    3    3    0    0  0.32560751477E+02 -0.50331699903E+01 -0.13386105526E+02  0.35562946424E+02  0.51100000000E-03 0. -1.
         11    1    3    3    0    0 -0.32560751477E+02  0.50331699903E+01  0.54865735939E+02  0.63998314957E+02  0.51100000000E-03 0.  1.
<mgrwt>
<rscale>  0 0.90509033E+02</rscale>
<asrwt>0</asrwt>
<pdfrwt beam="2">  1        4 0.44678178E-02 0.90509033E+02</pdfrwt>
<pdfrwt beam="1">  1       -4 0.10849299E-01 0.90509033E+02</pdfrwt>
<totfact> 0.27017537E+04</totfact>
</mgrwt>
</event>
<event>
 5    1  0.1133829E+000  0.9105814E+02  0.7818608E-02  0.1300309E+00
          4   -1    0    0  501    0  0.00000000000E+00  0.00000000000E+00  0.39390440015E+02  0.39416026748E+02  0.14200000000E+01 0. -1.
         -4   -1    0    0    0  501 -0.00000000000E+00 -0.00000000000E+00 -0.52572082924E+02  0.52591256906E+02  0.14200000000E+01 0.  1.
         23    2    1    2    0    0  0.00000000000E+00  0.00000000000E+00 -0.13181642909E+02  0.92007283654E+02  0.91058138217E+02 0.  0.
        -11    1    3    3    0    0  0.44652939647E+02  0.82991878279E+01 -0.33741503242E+01  0.45542797766E+02  0.51100000000E-03 0.  1.
         11    1    3    3    0    0 -0.44652939647E+02 -0.82991878279E+01 -0.98074925848E+01  0.46464485887E+02  0.51100000000E-03 0. -1.
<mgrwt>
<rscale>  0 0.91058138E+02</rscale>
<asrwt>0</asrwt>
<pdfrwt beam="1">  1        4 0.60635108E-02 0.91058138E+02</pdfrwt>
<pdfrwt beam="2">  1       -4 0.80914559E-02 0.91058138E+02</pdfrwt>
<totfact> 0.27058846E+04</totfact>
</mgrwt>
</event>
<event>
 5    1  0.1133829E+000  0.9006249E+02  0.7818608E-02  0.1302700E+00
          4   -1    0    0  501    0  0.00000000000E+00  0.00000000000E+00  0.22363938955E+02  0.22408975112E+02  0.14200000000E+01 0.  1.
         -4   -1    0    0    0  501 -0.00000000000E+00 -0.00000000000E+00 -0.90531528955E+02  0.90542664722E+02  0.14200000000E+01 0. -1.
         23    2    1    2    0    0  0.00000000000E+00  0.00000000000E+00 -0.68167590000E+02  0.11295163983E+03  0.90062492831E+02 0.  0.
        -11    1    3    3    0    0  0.18953955808E+02  0.30992401203E+02 -0.71235457835E+00  0.36335778819E+02  0.51100000000E-03 0.  1.
         11    1    3    3    0    0 -0.18953955808E+02 -0.30992401203E+02 -0.67455235422E+02  0.76615861015E+02  0.51100000000E-03 0. -1.
<mgrwt>
<rscale>  0 0.90062493E+02</rscale>
<asrwt>0</asrwt>
<pdfrwt beam="1">  1        4 0.34449269E-02 0.90062493E+02</pdfrwt>
<pdfrwt beam="2">  1       -4 0.13932248E-01 0.90062493E+02</pdfrwt>
<totfact> 0.26544934E+04</totfact>
</mgrwt>
</event>
<event>
 5    1  0.1133829E+000  0.8330460E+02  0.7818608E-02  0.1319927E+00
          4   -1    0    0  501    0  0.00000000000E+00  0.00000000000E+00  0.60967920456E+01  0.62599739015E+01  0.14200000000E+01 0. -1.
         -4   -1    0    0    0  501 -0.00000000000E+00 -0.00000000000E+00 -0.28063891987E+03  0.28064251236E+03  0.14200000000E+01 0.  1.
         23    2    1    2    0    0  0.00000000000E+00  0.00000000000E+00 -0.27454212782E+03  0.28690248626E+03  0.83304601762E+02 0.  0.
        -11    1    3    3    0    0  0.12645630710E+02 -0.39592830795E+02 -0.12789603269E+03  0.13448010784E+03  0.51100000000E-03 0. -1.
         11    1    3    3    0    0 -0.12645630710E+02  0.39592830795E+02 -0.14664609513E+03  0.15242237842E+03  0.51100000000E-03 0.  1.
<mgrwt>
<rscale>  0 0.83304602E+02</rscale>
<asrwt>0</asrwt>
<pdfrwt beam="1">  1        4 0.95079702E-03 0.83304602E+02</pdfrwt>
<pdfrwt beam="2">  1       -4 0.43188037E-01 0.83304602E+02</pdfrwt>
<totfact> 0.23135050E+04</totfact>
</mgrwt>
</event>
<event>
 5    1  0.1133829E+000  0.8937635E+02  0.7818608E-02  0.1304369E+00
          4   -1    0    0  501    0  0.00000000000E+00  0.00000000000E+00  0.46507459900E+02  0.46529133092E+02  0.14200000000E+01 0. -1.
         -4   -1    0    0    0  501 -0.00000000000E+00 -0.00000000000E+00 -0.42896625130E+02  0.42920121710E+02  0.14200000000E+01 0.  1.
         23    2    1    2    0    0  0.00000000000E+00  0.00000000000E+00  0.36108347696E+01  0.89449254802E+02  0.89376345064E+02 0.  0.
        -11    1    3    3    0    0 -0.32673112812E+02 -0.76015894570E+01  0.31354344697E+02  0.45917441074E+02  0.51100000000E-03 0. -1.
         11    1    3    3    0    0  0.32673112812E+02  0.76015894570E+01 -0.27743509928E+02  0.43531813728E+02  0.51100000000E-03 0.  1.
<mgrwt>
<rscale>  0 0.89376345E+02</rscale>
<asrwt>0</asrwt>
<pdfrwt beam="1">  1        4 0.71584684E-02 0.89376345E+02</pdfrwt>
<pdfrwt beam="2">  1       -4 0.66029554E-02 0.89376345E+02</pdfrwt>
<totfact> 0.28633117E+04</totfact>
</mgrwt>
</event>
<event>
 5    1  0.1133829E+000  0.9166212E+02  0.7818608E-02  0.1298876E+00
         -4   -1    0    0    0  501 -0.00000000000E+00  0.00000000000E+00  0.13772524886E+02  0.13845535083E+02  0.14200000000E+01 0.  1.
          4   -1    0    0  501    0  0.00000000000E+00 -0.00000000000E+00 -0.15203326251E+03  0.15203989381E+03  0.14200000000E+01 0. -1.
         23    2    1    2    0    0  0.00000000000E+00  0.00000000000E+00 -0.13826073762E+03  0.16588542889E+03  0.91662118405E+02 0.  0.
        -11    1    3    3    0    0 -0.40076596561E+02  0.22210810587E+02 -0.70969102784E+02  0.84475246369E+02  0.51100000000E-03 0.  1.
         11    1    3    3    0    0  0.40076596561E+02 -0.22210810587E+02 -0.67291634838E+02  0.81410182522E+02  0.51100000000E-03 0. -1.
<mgrwt>
<rscale>  0 0.91662118E+02</rscale>
<asrwt>0</asrwt>
<pdfrwt beam="2">  1        4 0.23395858E-01 0.91662118E+02</pdfrwt>
<pdfrwt beam="1">  1       -4 0.21249764E-02 0.91662118E+02</pdfrwt>
<totfact> 0.22575242E+04</totfact>
</mgrwt>
</event>
<event>
 5    1  0.1133829E+000  0.9102317E+02  0.7818608E-02  0.1300393E+00
          4   -1    0    0  501    0  0.00000000000E+00  0.00000000000E+00  0.32571707462E+02  0.32602646012E+02  0.14200000000E+01 0. -1.
         -4   -1    0    0    0  501 -0.00000000000E+00 -0.00000000000E+00 -0.63523062802E+02  0.63538932221E+02  0.14200000000E+01 0.  1.
         23    2    1    2    0    0  0.00000000000E+00  0.00000000000E+00 -0.30951355341E+02  0.96141578233E+02  0.91023165555E+02 0.  0.
        -11    1    3    3    0    0 -0.21609861815E+02 -0.26276247653E+02  0.16454633408E+02  0.37791298989E+02  0.51100000000E-03 0. -1.
         11    1    3    3    0    0  0.21609861815E+02  0.26276247653E+02 -0.47405988749E+02  0.58350279244E+02  0.51100000000E-03 0.  1.
<mgrwt>
<rscale>  0 0.91023166E+02</rscale>
<asrwt>0</asrwt>
<pdfrwt beam="1">  1        4 0.50146326E-02 0.91023166E+02</pdfrwt>
<pdfrwt beam="2">  1       -4 0.97763795E-02 0.91023166E+02</pdfrwt>
<totfact> 0.26822054E+04</totfact>
</mgrwt>
</event>
<event>
 5    1  0.1133829E+000  0.9406050E+02  0.7818608E-02  0.1293306E+00
         -4   -1    0    0    0  501 -0.00000000000E+00  0.00000000000E+00  0.65823795280E+02  0.65839110147E+02  0.14200000000E+01 0.  1.
          4   -1    0    0  501    0  0.00000000000E+00 -0.00000000000E+00 -0.33568267407E+02  0.33598288300E+02  0.14200000000E+01 0. -1.
         23    2    1    2    0    0  0.00000000000E+00  0.00000000000E+00  0.32255527872E+02  0.99437398448E+02  0.94060497191E+02 0.  0.
        -11    1    3    3    0    0  0.15382118451E+02  0.22574150127E+02  0.56599935051E+02  0.62847072088E+02  0.51100000000E-03 0.  1.
         11    1    3    3    0    0 -0.15382118451E+02 -0.22574150127E+02 -0.24344407178E+02  0.36590326360E+02  0.51100000000E-03 0. -1.
<mgrwt>
<rscale>  0 0.94060497E+02</rscale>
<asrwt>0</asrwt>
<pdfrwt beam="2">  1        4 0.51678362E-02 0.94060497E+02</pdfrwt>
<pdfrwt beam="1">  1       -4 0.10130225E-01 0.94060497E+02</pdfrwt>
<totfact> 0.24340679E+04</totfact>
</mgrwt>
</event>
<event>
 5    1  0.1133829E+000  0.9081031E+02  0.7818608E-02  0.1300901E+00
          4   -1    0    0  501    0  0.00000000000E+00  0.00000000000E+00  0.36190513229E+02  0.36218360644E+02  0.14200000000E+01 0.  1.
         -4   -1    0    0    0  501 -0.00000000000E+00 -0.00000000000E+00 -0.56907361385E+02  0.56925075141E+02  0.14200000000E+01 0. -1.
         23    2    1    2    0    0  0.00000000000E+00  0.00000000000E+00 -0.20716848156E+02  0.93143435785E+02  0.90810306862E+02 0.  0.
        -11    1    3    3    0    0 -0.11968149886E+02  0.40194995646E+02 -0.28205284188E+02  0.50541194516E+02  0.51100000000E-03 0. -1.
         11    1    3    3    0    0  0.11968149886E+02 -0.40194995646E+02  0.74884360319E+01  0.42602241269E+02  0.51100000000E-03 0.  1.
<mgrwt>
<rscale>  0 0.90810307E+02</rscale>
<asrwt>0</asrwt>
<pdfrwt beam="1">  1        4 0.55712760E-02 0.90810307E+02</pdfrwt>
<pdfrwt beam="2">  1       -4 0.87584834E-02 0.90810307E+02</pdfrwt>
<totfact> 0.27185593E+04</totfact>
</mgrwt>
</event>
<event>
 5    1  0.1133829E+000  0.8554024E+02  0.7818608E-02  0.1314026E+00
         -4   -1    0    0    0  501 -0.00000000000E+00  0.00000000000E+00  0.43775043509E+02  0.43798068841E+02  0.14200000000E+01 0.  1.
          4   -1    0    0  501    0  0.00000000000E+00 -0.00000000000E+00 -0.41742180083E+02  0.41766326126E+02  0.14200000000E+01 0. -1.
         23    2    1    2    0    0  0.00000000000E+00  0.00000000000E+00  0.20328634264E+01  0.85564394967E+02  0.85540242882E+02 0.  0.
        -11    1    3    3    0    0 -0.39969309310E+02 -0.14751214625E+02 -0.27448517988E+01  0.42692835832E+02  0.51100000000E-03 0. -1.
         11    1    3    3    0    0  0.39969309310E+02  0.14751214625E+02  0.47777152252E+01  0.42871559136E+02  0.51100000000E-03 0.  1.
<mgrwt>
<rscale>  0 0.85540243E+02</rscale>
<asrwt>0</asrwt>
<pdfrwt beam="2">  1        4 0.64255024E-02 0.85540243E+02</pdfrwt>
<pdfrwt beam="1">  1       -4 0.67382506E-02 0.85540243E+02</pdfrwt>
<totfact> 0.32534120E+04</totfact>
</mgrwt>
</event>
<event>
 5    1  0.1133829E+000  0.9174995E+02  0.7818608E-02  0.1298668E+00
          4   -1    0    0  501    0  0.00000000000E+00  0.00000000000E+00  0.11417519375E+03  0.11418402370E+03  0.14200000000E+01 0. -1.
         -4   -1    0    0    0  501 -0.00000000000E+00 -0.00000000000E+00 -0.18395411995E+02  0.18450137736E+02  0.14200000000E+01 0.  1.
         23    2    1    2    0    0  0.00000000000E+00  0.00000000000E+00  0.95779781759E+02  0.13263416144E+03  0.91749954696E+02 0.  0.
        -11    1    3    3    0    0  0.31811999310E+02 -0.25748555363E+02  0.17929855880E+02  0.44681888227E+02  0.51100000000E-03 0.  1.
         11    1    3    3    0    0 -0.31811999310E+02  0.25748555363E+02  0.77849925880E+02  0.87952273212E+02  0.51100000000E-03 0. -1.
<mgrwt>
<rscale>  0 0.91749955E+02</rscale>
<asrwt>0</asrwt>
<pdfrwt beam="1">  1        4 0.17570303E-01 0.91749955E+02</pdfrwt>
<pdfrwt beam="2">  1       -4 0.28349523E-02 0.91749955E+02</pdfrwt>
<totfact> 0.24162691E+04</totfact>
</mgrwt>
</event>
<event>
 5    1  0.1133829E+000  0.9186918E+02  0.7818608E-02  0.1298387E+00
          4   -1    0    0  501    0  0.00000000000E+00  0.00000000000E+00  0.29516552090E+02  0.29550689455E+02  0.14200000000E+01 0. -1.
         -4   -1    0    0    0  501 -0.00000000000E+00 -0.00000000000E+00 -0.71402341407E+02  0.71416459996E+02  0.14200000000E+01 0.  1.
         23    2    1    2    0    0  0.00000000000E+00  0.00000000000E+00 -0.41885789317E+02  0.10096714945E+03  0.91869178300E+02 0.  0.
        -11    1    3    3    0    0 -0.12995792529E+02  0.18536736531E-02 -0.69363894642E+02  0.70570819090E+02  0.51100000000E-03 0.  1.
         11    1    3    3    0    0  0.12995792529E+02 -0.18536736531E-02  0.27478105325E+02  0.30396330361E+02  0.51100000000E-03 0. -1.
<mgrwt>
<rscale>  0 0.91869178E+02</rscale>
<asrwt>0</asrwt>
<pdfrwt beam="1">  1        4 0.45447200E-02 0.91869178E+02</pdfrwt>
<pdfrwt beam="2">  1       -4 0.10988688E-01 0.91869178E+02</pdfrwt>
<totfact> 0.25861485E+04</totfact>
</mgrwt>
</event>
<event>
 5    1  0.1133829E+000  0.9078508E+02  0.7818608E-02  0.1300962E+00
         -4   -1    0    0    0  501 -0.00000000000E+00  0.00000000000E+00  0.29512709068E+03  0.29513050681E+03  0.14200000000E+01 0.  1.
          4   -1    0    0  501    0  0.00000000000E+00 -0.00000000000E+00 -0.69059838660E+01  0.70504619109E+01  0.14200000000E+01 0. -1.
         23    2    1    2    0    0  0.00000000000E+00  0.00000000000E+00  0.28822110681E+03  0.30218096872E+03  0.90785083837E+02 0.  0.
        -11    1    3    3    0    0 -0.41536610717E+02 -0.14044126281E+02  0.18320561321E+03  0.18837946869E+03  0.51100000000E-03 0. -1.
         11    1    3    3    0    0  0.41536610717E+02  0.14044126281E+02  0.10501549360E+03  0.11380150004E+03  0.51100000000E-03 0.  1.
<mgrwt>
<rscale>  0 0.90785084E+02</rscale>
<asrwt>0</asrwt>
<pdfrwt beam="2">  1        4 0.10738356E-02 0.90785084E+02</pdfrwt>
<pdfrwt beam="1">  1       -4 0.45415543E-01 0.90785084E+02</pdfrwt>
<totfact> 0.17957999E+04</totfact>
</mgrwt>
</event>
<event>
 5    1  0.1133829E+000  0.5701545E+02  0.7818608E-02  0.1410801E+00
          4   -1    0    0  501    0  0.00000000000E+00  0.00000000000E+00  0.28474282501E+02  0.28509667903E+02  0.14200000000E+01 0. -1.
         -4   -1    0    0    0  501 -0.00000000000E+00 -0.00000000000E+00 -0.28470390563E+02  0.28505780797E+02  0.14200000000E+01 0.  1.
         23    2    1    2    0    0  0.00000000000E+00  0.00000000000E+00  0.38919379424E-02  0.57015448700E+02  0.57015448567E+02 0.  0.
        -11    1    3    3    0    0  0.20517220394E+02  0.11641901145E+02  0.16008199428E+02  0.28508816955E+02  0.51100000000E-03 0. -1.
         11    1    3    3    0    0 -0.20517220394E+02 -0.11641901145E+02 -0.16004307490E+02  0.28506631745E+02  0.51100000000E-03 0.  1.
<mgrwt>
<rscale>  0 0.57015449E+02</rscale>
<asrwt>0</asrwt>
<pdfrwt beam="1">  1        4 0.43861031E-02 0.57015449E+02</pdfrwt>
<pdfrwt beam="2">  1       -4 0.43855044E-02 0.57015449E+02</pdfrwt>
<totfact> 0.10147480E+05</totfact>
</mgrwt>
</event>
<event>
 5    1  0.1133829E+000  0.9680675E+02  0.7818608E-02  0.1287158E+00
         -4   -1    0    0    0  501 -0.00000000000E+00  0.00000000000E+00  0.47018592116E+02  0.47040029810E+02  0.14200000000E+01 0.  1.
          4   -1    0    0  501    0  0.00000000000E+00 -0.00000000000E+00 -0.49786020767E+02  0.49806267315E+02  0.14200000000E+01 0. -1.
         23    2    1    2    0    0  0.00000000000E+00  0.00000000000E+00 -0.27674286514E+01  0.96846297125E+02  0.96806748760E+02 0.  0.
        -11    1    3    3    0    0 -0.22424151802E+02  0.22829698780E+02  0.34947081384E+02  0.47384978927E+02  0.51100000000E-03 0.  1.
         11    1    3    3    0    0  0.22424151802E+02 -0.22829698780E+02 -0.37714510035E+02  0.49461318198E+02  0.51100000000E-03 0. -1.
<mgrwt>
<rscale>  0 0.96806749E+02</rscale>
<asrwt>0</asrwt>
<pdfrwt beam="2">  1        4 0.76625943E-02 0.96806749E+02</pdfrwt>
<pdfrwt beam="1">  1       -4 0.72368360E-02 0.96806749E+02</pdfrwt>
<totfact> 0.22636433E+04</totfact>
</mgrwt>
</event>
<event>
 5    1  0.1133829E+000  0.9575387E+02  0.7818608E-02  0.1289487E+00
         -4   -1    0    0    0  501 -0.00000000000E+00  0.00000000000E+00  0.19514260113E+03  0.19514776754E+03  0.14200000000E+01 0.  1.
          4   -1    0    0  501    0  0.00000000000E+00 -0.00000000000E+00 -0.11698029970E+02  0.11783900253E+02  0.14200000000E+01 0. -1.
         23    2    1    2    0    0  0.00000000000E+00  0.00000000000E+00  0.18344457116E+03  0.20693166779E+03  0.95753874321E+02 0.  0.
        -11    1    3    3    0    0  0.18228076011E+02 -0.42974856455E+02  0.11470503798E+03  0.12384000477E+03  0.51100000000E-03 0.  1.
         11    1    3    3    0    0 -0.18228076011E+02  0.42974856455E+02  0.68739533180E+02  0.83091663026E+02  0.51100000000E-03 0. -1.
<mgrwt>
<rscale>  0 0.95753874E+02</rscale>
<asrwt>0</asrwt>
<pdfrwt beam="2">  1        4 0.18066998E-02 0.95753874E+02</pdfrwt>
<pdfrwt beam="1">  1       -4 0.30028941E-01 0.95753874E+02</pdfrwt>
<totfact> 0.18496805E+04</totfact>
</mgrwt>
</event>
<event>
 5    1  0.1133829E+000  0.9098726E+02  0.7818608E-02  0.1300478E+00
         -4   -1    0    0    0  501 -0.00000000000E+00  0.00000000000E+00  0.63007806603E+02  0.63023805764E+02  0.14200000000E+01 0.  1.
          4   -1    0    0  501    0  0.00000000000E+00 -0.00000000000E+00 -0.32812313509E+02  0.32843025406E+02  0.14200000000E+01 0. -1.
         23    2    1    2    0    0  0.00000000000E+00  0.00000000000E+00  0.30195493094E+02  0.95866831169E+02  0.90987260181E+02 0.  0.
        -11    1    3    3    0    0 -0.37000680648E+02  0.12659719663E+02  0.39589843419E+02  0.55647772395E+02  0.51100000000E-03 0.  1.
         11    1    3    3    0    0  0.37000680648E+02 -0.12659719663E+02 -0.93943503242E+01  0.40219058774E+02  0.51100000000E-03 0. -1.
<mgrwt>
<rscale>  0 0.90987260E+02</rscale>
<asrwt>0</asrwt>
<pdfrwt beam="2">  1        4 0.50516414E-02 0.90987260E+02</pdfrwt>
<pdfrwt beam="1">  1       -4 0.96971019E-02 0.90987260E+02</pdfrwt>
<totfact> 0.26868170E+04</totfact>
</mgrwt>
</event>
<event>
 5    1  0.1133829E+000  0.9272637E+02  0.7818608E-02  0.1296381E+00
          4   -1    0    0  501    0  0.00000000000E+00  0.00000000000E+00  0.13519298523E+02  0.13593668841E+02  0.14200000000E+01 0.  1.
         -4   -1    0    0    0  501 -0.00000000000E+00 -0.00000000000E+00 -0.15848457559E+03  0.15849093696E+03  0.14200000000E+01 0. -1.
         23    2    1    2    0    0  0.00000000000E+00  0.00000000000E+00 -0.14496527706E+03  0.17208460580E+03  0.92726371653E+02 0.  0.
        -11    1    3    3    0    0 -0.38813322085E+02  0.20673916877E+02 -0.45229046779E+02  0.63083686347E+02  0.51100000000E-03 0.  1.
         11    1    3    3    0    0  0.38813322085E+02 -0.20673916877E+02 -0.99736230283E+02  0.10900091945E+03  0.51100000000E-03 0. -1.
<mgrwt>
<rscale>  0 0.92726372E+02</rscale>
<asrwt>0</asrwt>
<pdfrwt beam="1">  1        4 0.20861023E-02 0.92726372E+02</pdfrwt>
<pdfrwt beam="2">  1       -4 0.24388451E-01 0.92726372E+02</pdfrwt>
<totfact> 0.21608109E+04</totfact>
</mgrwt>
</event>
<event>
 5    1  0.1133829E+000  0.9092025E+02  0.7818608E-02  0.1300638E+00
         -4   -1    0    0    0  501 -0.00000000000E+00  0.00000000000E+00  0.19231202737E+03  0.19231726982E+03  0.14200000000E+01 0.  1.
          4   -1    0    0  501    0  0.00000000000E+00 -0.00000000000E+00 -0.10693873300E+02  0.10787739622E+02  0.14200000000E+01 0. -1.
         23    2    1    2    0    0  0.00000000000E+00  0.00000000000E+00  0.18161815407E+03  0.20310500944E+03  0.90920245120E+02 0.  0.
        -11    1    3    3    0    0  0.19833194838E+02 -0.39225357186E+02  0.64888501773E+02  0.78374115156E+02  0.51100000000E-03 0.  1.
         11    1    3    3    0    0 -0.19833194838E+02  0.39225357186E+02  0.11672965229E+03  0.12473089428E+03  0.51100000000E-03 0. -1.
<mgrwt>
<rscale>  0 0.90920245E+02</rscale>
<asrwt>0</asrwt>
<pdfrwt beam="2">  1        4 0.16528352E-02 0.90920245E+02</pdfrwt>
<pdfrwt beam="1">  1       -4 0.29594086E-01 0.90920245E+02</pdfrwt>
<totfact> 0.21418124E+04</totfact>
</mgrwt>
</event>
<event>
 5    1  0.1133829E+000  0.9288679E+02  0.7818608E-02  0.1296008E+00
         -4   -1    0    0    0  501 -0.00000000000E+00  0.00000000000E+00  0.10656955434E+02  0.10751144084E+02  0.14200000000E+01 0.  1.
          4   -1    0    0  501    0  0.00000000000E+00 -0.00000000000E+00 -0.20141479737E+03  0.20141980290E+03  0.14200000000E+01 0. -1.
         23    2    1    2    0    0  0.00000000000E+00  0.00000000000E+00 -0.19075784194E+03  0.21217094699E+03  0.92886793913E+02 0.  0.
        -11    1    3    3    0    0  0.39490754671E+02 -0.15963583830E+02 -0.53097770651E+02  0.68071498893E+02  0.51100000000E-03 0.  1.
         11    1    3    3    0    0 -0.39490754671E+02  0.15963583830E+02 -0.13766007129E+03  0.14409944809E+03  0.51100000000E-03 0. -1.
<mgrwt>
<rscale>  0 0.92886794E+02</rscale>
<asrwt>0</asrwt>
<pdfrwt beam="2">  1        4 0.30994519E-01 0.92886794E+02</pdfrwt>
<pdfrwt beam="1">  1       -4 0.16471621E-02 0.92886794E+02</pdfrwt>
<totfact> 0.19872809E+04</totfact>
</mgrwt>
</event>
<event>
 5    1  0.1133829E+000  0.9003820E+02  0.7818608E-02  0.1302759E+00
         -4   -1    0    0    0  501 -0.00000000000E+00  0.00000000000E+00  0.59327052109E+01  0.61002779543E+01  0.14200000000E+01 0.  1.
          4   -1    0    0  501    0  0.00000000000E+00 -0.00000000000E+00 -0.33669154089E+03  0.33669453531E+03  0.14200000000E+01 0. -1.
         23    2    1    2    0    0  0.00000000000E+00  0.00000000000E+00 -0.33075883568E+03  0.34279481326E+03  0.90038195341E+02 0.  0.
        -11    1    3    3    0    0 -0.23683804116E+02  0.37673745227E+02 -0.13942171811E+03  0.14635111595E+03  0.51100000000E-03 0.  1.
         11    1    3    3    0    0  0.23683804116E+02 -0.37673745227E+02 -0.19133711757E+03  0.19644369732E+03  0.51100000000E-03 0. -1.
<mgrwt>
<rscale>  0 0.90038195E+02</rscale>
<asrwt>0</asrwt>
<pdfrwt beam="2">  1        4 0.51811804E-01 0.90038195E+02</pdfrwt>
<pdfrwt beam="1">  1       -4 0.92584469E-03 0.90038195E+02</pdfrwt>
<totfact> 0.17150875E+04</totfact>
</mgrwt>
</event>
<event>
 5    1  0.1133829E+000  0.9186062E+02  0.7818608E-02  0.1298407E+00
         -4   -1    0    0    0  501 -0.00000000000E+00  0.00000000000E+00  0.68667440264E+02  0.68682121053E+02  0.14200000000E+01 0.  1.
          4   -1    0    0  501    0  0.00000000000E+00 -0.00000000000E+00 -0.30687501598E+02  0.30720337797E+02  0.14200000000E+01 0. -1.
         23    2    1    2    0    0  0.00000000000E+00  0.00000000000E+00  0.37979938666E+02  0.99402458850E+02  0.91860617701E+02 0.  0.
        -11    1    3    3    0    0 -0.29772130269E+02 -0.27591535023E+02 -0.42669127061E+01  0.40815182102E+02  0.51100000000E-03 0. -1.
         11    1    3    3    0    0  0.29772130269E+02  0.27591535023E+02  0.42246851372E+02  0.58587276748E+02  0.51100000000E-03 0.  1.
<mgrwt>
<rscale>  0 0.91860618E+02</rscale>
<asrwt>0</asrwt>
<pdfrwt beam="2">  1        4 0.47248093E-02 0.91860618E+02</pdfrwt>
<pdfrwt beam="1">  1       -4 0.10567877E-01 0.91860618E+02</pdfrwt>
<totfact> 0.25962718E+04</totfact>
</mgrwt>
</event>
<event>
 5    1  0.1133829E+000  0.9234756E+02  0.7818608E-02  0.1297264E+00
         -4   -1    0    0    0  501 -0.00000000000E+00  0.00000000000E+00  0.27229697307E+03  0.27230067562E+03  0.14200000000E+01 0.  1.
          4   -1    0    0  501    0  0.00000000000E+00 -0.00000000000E+00 -0.77615828308E+01  0.78904098778E+01  0.14200000000E+01 0. -1.
         23    2    1    2    0    0  0.00000000000E+00  0.00000000000E+00  0.26453539024E+03  0.28019108550E+03  0.92347559271E+02 0.  0.
        -11    1    3    3    0    0  0.10873164300E-01  0.43053540848E+02  0.81641925210E+02  0.92298491049E+02  0.51100000000E-03 0. -1.
         11    1    3    3    0    0 -0.10873164300E-01 -0.43053540848E+02  0.18289346503E+03  0.18789259445E+03  0.51100000000E-03 0.  1.
<mgrwt>
<rscale>  0 0.92347559E+02</rscale>
<asrwt>0</asrwt>
<pdfrwt beam="2">  1        4 0.12042845E-02 0.92347559E+02</pdfrwt>
<pdfrwt beam="1">  1       -4 0.41902029E-01 0.92347559E+02</pdfrwt>
<totfact> 0.17824960E+04</totfact>
</mgrwt>
</event>
<event>
 5    1  0.1133829E+000  0.9053559E+02  0.7818608E-02  0.1301560E+00
          4   -1    0    0  501    0  0.00000000000E+00  0.00000000000E+00  0.56625670670E+02  0.56643472517E+02  0.14200000000E+01 0. -1.
         -4   -1    0    0    0  501 -0.00000000000E+00 -0.00000000000E+00 -0.36150633016E+02  0.36178511129E+02  0.14200000000E+01 0.  1.
         23    2    1    2    0    0  0.00000000000E+00  0.00000000000E+00  0.20475037653E+02  0.92821983646E+02  0.90535592344E+02 0.  0.
        -11    1    3    3    0    0  0.17507277832E+02 -0.18936640077E+02 -0.27905132629E+02  0.37997335983E+02  0.51100000000E-03 0.  1.
         11    1    3    3    0    0 -0.17507277832E+02  0.18936640077E+02  0.48380170282E+02  0.54824647663E+02  0.51100000000E-03 0. -1.
<mgrwt>
<rscale>  0 0.90535592E+02</rscale>
<asrwt>0</asrwt>
<pdfrwt beam="1">  1        4 0.87151555E-02 0.90535592E+02</pdfrwt>
<pdfrwt beam="2">  1       -4 0.55651497E-02 0.90535592E+02</pdfrwt>
<totfact> 0.27430321E+04</totfact>
</mgrwt>
</event>
<event>
 5    1  0.1133829E+000  0.9527588E+02  0.7818608E-02  0.1290556E+00
          4   -1    0    0  501    0  0.00000000000E+00  0.00000000000E+00  0.25783851542E+03  0.25784242559E+03  0.14200000000E+01 0. -1.
         -4   -1    0    0    0  501 -0.00000000000E+00 -0.00000000000E+00 -0.87402522039E+01  0.88548522623E+01  0.14200000000E+01 0.  1.
         23    2    1    2    0    0  0.00000000000E+00  0.00000000000E+00  0.24909826322E+03  0.26669727785E+03  0.95275879825E+02 0.  0.
        -11    1    3    3    0    0 -0.81874823350E+01 -0.40275544670E+02  0.57122483512E+02  0.70371389700E+02  0.51100000000E-03 0.  1.
         11    1    3    3    0    0  0.81874823350E+01  0.40275544670E+02  0.19197577970E+03  0.19632588815E+03  0.51100000000E-03 0. -1.
<mgrwt>
<rscale>  0 0.95275880E+02</rscale>
<asrwt>0</asrwt>
<pdfrwt beam="1">  1        4 0.39676575E-01 0.95275880E+02</pdfrwt>
<pdfrwt beam="2">  1       -4 0.13537705E-02 0.95275880E+02</pdfrwt>
<totfact> 0.16790921E+04</totfact>
</mgrwt>
</event>
<event>
 5    1  0.1133829E+000  0.9029493E+02  0.7818608E-02  0.1302139E+00
         -4   -1    0    0    0  501 -0.00000000000E+00  0.00000000000E+00  0.23798919727E+03  0.23799343356E+03  0.14200000000E+01 0.  1.
          4   -1    0    0  501    0  0.00000000000E+00 -0.00000000000E+00 -0.85014471772E+01  0.86192229410E+01  0.14200000000E+01 0. -1.
         23    2    1    2    0    0  0.00000000000E+00  0.00000000000E+00  0.22948775009E+03  0.24661265650E+03  0.90294932878E+02 0.  0.
        -11    1    3    3    0    0  0.40705114815E+02 -0.42441141958E+00  0.61418668602E+02  0.73684050854E+02  0.51100000000E-03 0. -1.
         11    1    3    3    0    0 -0.40705114815E+02  0.42441141958E+00  0.16806908149E+03  0.17292860565E+03  0.51100000000E-03 0.  1.
<mgrwt>
<rscale>  0 0.90294933E+02</rscale>
<asrwt>0</asrwt>
<pdfrwt beam="2">  1        4 0.13173005E-02 0.90294933E+02</pdfrwt>
<pdfrwt beam="1">  1       -4 0.36623108E-01 0.90294933E+02</pdfrwt>
<totfact> 0.20097582E+04</totfact>
</mgrwt>
</event>
<event>
 5    1  0.1133829E+000  0.9543668E+02  0.7818608E-02  0.1290196E+00
          4   -1    0    0  501    0  0.00000000000E+00  0.00000000000E+00  0.12147475575E+02  0.12230190630E+02  0.14200000000E+01 0. -1.
         -4   -1    0    0    0  501 -0.00000000000E+00 -0.00000000000E+00 -0.18672819649E+03  0.18673359571E+03  0.14200000000E+01 0.  1.
         23    2    1    2    0    0  0.00000000000E+00  0.00000000000E+00 -0.17458072092E+03  0.19896378634E+03  0.95436681404E+02 0.  0.
        -11    1    3    3    0    0  0.19559349412E+02  0.25432563881E+02 -0.16092908186E+03  0.16409616949E+03  0.51100000000E-03 0.  1.
         11    1    3    3    0    0 -0.19559349412E+02 -0.25432563881E+02 -0.13651639061E+02  0.34867616843E+02  0.51100000000E-03 0. -1.
<mgrwt>
<rscale>  0 0.95436681E+02</rscale>
<asrwt>0</asrwt>
<pdfrwt beam="1">  1        4 0.18756206E-02 0.95436681E+02</pdfrwt>
<pdfrwt beam="2">  1       -4 0.28734191E-01 0.95436681E+02</pdfrwt>
<totfact> 0.18952812E+04</totfact>
</mgrwt>
</event>
<event>
 5    1  0.1133829E+000  0.9210499E+02  0.7818608E-02  0.1297833E+00
         -4   -1    0    0    0  501 -0.00000000000E+00  0.00000000000E+00  0.23917014487E+03  0.23917436024E+03  0.14200000000E+01 0. -1.
          4   -1    0    0  501    0  0.00000000000E+00 -0.00000000000E+00 -0.88062920735E+01  0.89200437266E+01  0.14200000000E+01 0.  1.
         23    2    1    2    0    0  0.00000000000E+00  0.00000000000E+00  0.23036385280E+03  0.24809440397E+03  0.92104986865E+02 0.  0.
        -11    1    3    3    0    0  0.36815423427E+02  0.11947032967E+02  0.18239937553E+03  0.18646082482E+03  0.51100000000E-03 0. -1.
         11    1    3    3    0    0 -0.36815423427E+02 -0.11947032967E+02  0.47964477267E+02  0.61633579148E+02  0.51100000000E-03 0.  1.
<mgrwt>
<rscale>  0 0.92104987E+02</rscale>
<asrwt>0</asrwt>
<pdfrwt beam="2">  1        4 0.13638887E-02 0.92104987E+02</pdfrwt>
<pdfrwt beam="1">  1       -4 0.36804478E-01 0.92104987E+02</pdfrwt>
<totfact> 0.19009706E+04</totfact>
</mgrwt>
</event>
<event>
 5    1  0.1133829E+000  0.9132069E+02  0.7818608E-02  0.1299685E+00
         -4   -1    0    0    0  501 -0.00000000000E+00  0.00000000000E+00  0.91678077811E+02  0.91689074328E+02  0.14200000000E+01 0.  1.
          4   -1    0    0  501    0  0.00000000000E+00 -0.00000000000E+00 -0.22706631951E+02  0.22750989749E+02  0.14200000000E+01 0. -1.
         23    2    1    2    0    0  0.00000000000E+00  0.00000000000E+00  0.68971445859E+02  0.11444006408E+03  0.91320687262E+02 0.  0.
        -11    1    3    3    0    0  0.77434846405E+01 -0.44983154794E+02  0.35979680114E+02  0.58120419398E+02  0.51100000000E-03 0.  1.
         11    1    3    3    0    0 -0.77434846405E+01  0.44983154794E+02  0.32991765745E+02  0.56319644680E+02  0.51100000000E-03 0. -1.
<mgrwt>
<rscale>  0 0.91320687E+02</rscale>
<asrwt>0</asrwt>
<pdfrwt beam="2">  1        4 0.34975860E-02 0.91320687E+02</pdfrwt>
<pdfrwt beam="1">  1       -4 0.14108578E-01 0.91320687E+02</pdfrwt>
<totfact> 0.25482848E+04</totfact>
</mgrwt>
</event>
<event>
 5    1  0.1133829E+000  0.9159123E+02  0.7818608E-02  0.1299043E+00
         -4   -1    0    0    0  501 -0.00000000000E+00  0.00000000000E+00  0.35552975084E+03  0.35553258659E+03  0.14200000000E+01 0.  1.
          4   -1    0    0  501    0  0.00000000000E+00 -0.00000000000E+00 -0.58105533569E+01  0.59815491566E+01  0.14200000000E+01 0. -1.
         23    2    1    2    0    0  0.00000000000E+00  0.00000000000E+00  0.34971919748E+03  0.36151413575E+03  0.91591229173E+02 0.  0.
        -11    1    3    3    0    0  0.35003800467E+02  0.26813886172E+02  0.22367982212E+03  0.22798445860E+03  0.51100000000E-03 0.  1.
         11    1    3    3    0    0 -0.35003800467E+02 -0.26813886172E+02  0.12603937536E+03  0.13352967715E+03  0.51100000000E-03 0. -1.
<mgrwt>
<rscale>  0 0.91591229E+02</rscale>
<asrwt>0</asrwt>
<pdfrwt beam="2">  1        4 0.90730268E-03 0.91591229E+02</pdfrwt>
<pdfrwt beam="1">  1       -4 0.54710273E-01 0.91591229E+02</pdfrwt>
<totfact> 0.15902450E+04</totfact>
</mgrwt>
</event>
<event>
 4    1  0.1133829E+000  0.3270386E+02  0.7818608E-02  0.1569990E+00
         -4   -1    0    0    0  501 -0.00000000000E+00  0.00000000000E+00  0.87848672154E+01  0.88988927397E+01  0.14200000000E+01 0.  1.
          4   -1    0    0  501    0  0.00000000000E+00 -0.00000000000E+00 -0.30109936362E+02  0.30143401728E+02  0.14200000000E+01 0. -1.
        -11    1    1    2    0    0 -0.80587178969E+01  0.74357265898E+01 -0.25144260245E+02  0.27431128077E+02  0.51100000000E-03 0. -1.
         11    1    1    2    0    0  0.80587178969E+01 -0.74357265898E+01  0.38191910976E+01  0.11611166391E+02  0.51100000000E-03 0.  1.
<mgrwt>
<rscale>  0 0.32703856E+02</rscale>
<asrwt>0</asrwt>
<pdfrwt beam="2">  1        4 0.46436433E-02 0.32703856E+02</pdfrwt>
<pdfrwt beam="1">  1       -4 0.13628635E-02 0.32703856E+02</pdfrwt>
<totfact> 0.41320523E+05</totfact>
</mgrwt>
</event>
<event>
 5    1  0.1133829E+000  0.9364731E+02  0.7818608E-02  0.1294252E+00
          4   -1    0    0  501    0  0.00000000000E+00  0.00000000000E+00  0.22844011100E+03  0.22844452436E+03  0.14200000000E+01 0. -1.
         -4   -1    0    0    0  501 -0.00000000000E+00 -0.00000000000E+00 -0.95404483634E+01  0.96455458619E+01  0.14200000000E+01 0.  1.
         23    2    1    2    0    0  0.00000000000E+00  0.00000000000E+00  0.21889966263E+03  0.23809007022E+03  0.93647313039E+02 0.  0.
        -11    1    3    3    0    0  0.37338858642E+02 -0.55012291651E+01  0.17990726702E+03  0.18382349854E+03  0.51100000000E-03 0. -1.
         11    1    3    3    0    0 -0.37338858642E+02  0.55012291651E+01  0.38992395608E+02  0.54266571685E+02  0.51100000000E-03 0.  1.
<mgrwt>
<rscale>  0 0.93647313E+02</rscale>
<asrwt>0</asrwt>
<pdfrwt beam="1">  1        4 0.35153057E-01 0.93647313E+02</pdfrwt>
<pdfrwt beam="2">  1       -4 0.14761852E-02 0.93647313E+02</pdfrwt>
<totfact> 0.18519018E+04</totfact>
</mgrwt>
</event>
<event>
 5    1  0.1133829E+000  0.8923193E+02  0.7818608E-02  0.1304722E+00
          4   -1    0    0  501    0  0.00000000000E+00  0.00000000000E+00  0.37822426890E+02  0.37849073646E+02  0.14200000000E+01 0. -1.
         -4   -1    0    0    0  501 -0.00000000000E+00 -0.00000000000E+00 -0.52574963642E+02  0.52594136574E+02  0.14200000000E+01 0.  1.
         23    2    1    2    0    0  0.00000000000E+00  0.00000000000E+00 -0.14752536752E+02  0.90443210219E+02  0.89231927773E+02 0.  0.
        -11    1    3    3    0    0 -0.26895478686E+02  0.46827865781E+01 -0.43143947758E+02  0.51055807626E+02  0.51100000000E-03 0.  1.
         11    1    3    3    0    0  0.26895478686E+02 -0.46827865781E+01  0.28391411006E+02  0.39387402594E+02  0.51100000000E-03 0. -1.
<mgrwt>
<rscale>  0 0.89231928E+02</rscale>
<asrwt>0</asrwt>
<pdfrwt beam="1">  1        4 0.58223595E-02 0.89231928E+02</pdfrwt>
<pdfrwt beam="2">  1       -4 0.80919806E-02 0.89231928E+02</pdfrwt>
<totfact> 0.28689947E+04</totfact>
</mgrwt>
</event>
<event>
 5    1  0.1133829E+000  0.9387304E+02  0.7818608E-02  0.1293735E+00
         -4   -1    0    0    0  501 -0.00000000000E+00  0.00000000000E+00  0.28007161813E+02  0.28043136644E+02  0.14200000000E+01 0.  1.
          4   -1    0    0  501    0  0.00000000000E+00 -0.00000000000E+00 -0.78566884722E+02  0.78579716052E+02  0.14200000000E+01 0. -1.
         23    2    1    2    0    0  0.00000000000E+00  0.00000000000E+00 -0.50559722909E+02  0.10662285270E+03  0.93873037324E+02 0.  0.
        -11    1    3    3    0    0  0.91820045831E+01 -0.31522366551E+02 -0.63377566115E+02  0.71377059957E+02  0.51100000000E-03 0. -1.
         11    1    3    3    0    0 -0.91820045831E+01  0.31522366551E+02  0.12817843206E+02  0.35245792740E+02  0.51100000000E-03 0.  1.
<mgrwt>
<rscale>  0 0.93873037E+02</rscale>
<asrwt>0</asrwt>
<pdfrwt beam="2">  1        4 0.12090967E-01 0.93873037E+02</pdfrwt>
<pdfrwt beam="1">  1       -4 0.43125485E-02 0.93873037E+02</pdfrwt>
<totfact> 0.24070576E+04</totfact>
</mgrwt>
</event>
<event>
 5    1  0.1133829E+000  0.9620394E+02  0.7818608E-02  0.1288487E+00
          4   -1    0    0  501    0  0.00000000000E+00  0.00000000000E+00  0.21306875892E+03  0.21307349067E+03  0.14200000000E+01 0. -1.
         -4   -1    0    0    0  501 -0.00000000000E+00 -0.00000000000E+00 -0.10808109300E+02  0.10900992002E+02  0.14200000000E+01 0.  1.
         23    2    1    2    0    0  0.00000000000E+00  0.00000000000E+00  0.20226064962E+03  0.22397448267E+03  0.96203942251E+02 0.  0.
        -11    1    3    3    0    0 -0.96934169189E+01  0.35334401036E+02  0.28572165459E+02  0.46463435811E+02  0.51100000000E-03 0.  1.
         11    1    3    3    0    0  0.96934169189E+01 -0.35334401036E+02  0.17368848416E+03  0.17751104686E+03  0.51100000000E-03 0. -1.
<mgrwt>
<rscale>  0 0.96203942E+02</rscale>
<asrwt>0</asrwt>
<pdfrwt beam="1">  1        4 0.32787319E-01 0.96203942E+02</pdfrwt>
<pdfrwt beam="2">  1       -4 0.16702948E-02 0.96203942E+02</pdfrwt>
<totfact> 0.17683297E+04</totfact>
</mgrwt>
</event>
<event>
 5    1  0.1133829E+000  0.9257926E+02  0.7818608E-02  0.1296723E+00
         -4   -1    0    0    0  501 -0.00000000000E+00  0.00000000000E+00  0.33954879756E+03  0.33955176679E+03  0.14200000000E+01 0.  1.
          4   -1    0    0  501    0  0.00000000000E+00 -0.00000000000E+00 -0.62276031391E+01  0.63874440004E+01  0.14200000000E+01 0. -1.
         23    2    1    2    0    0  0.00000000000E+00  0.00000000000E+00  0.33332119443E+03  0.34593921079E+03  0.92579257430E+02 0.  0.
        -11    1    3    3    0    0 -0.27857940700E+02 -0.36123140143E+02  0.19603186861E+03  0.20126956954E+03  0.51100000000E-03 0.  1.
         11    1    3    3    0    0  0.27857940700E+02  0.36123140143E+02  0.13728932582E+03  0.14466964124E+03  0.51100000000E-03 0. -1.
<mgrwt>
<rscale>  0 0.92579257E+02</rscale>
<asrwt>0</asrwt>
<pdfrwt beam="2">  1        4 0.97061623E-03 0.92579257E+02</pdfrwt>
<pdfrwt beam="1">  1       -4 0.52250823E-01 0.92579257E+02</pdfrwt>
<totfact> 0.15848640E+04</totfact>
</mgrwt>
</event>
<event>
 5    1  0.1133829E+000  0.9265962E+02  0.7818608E-02  0.1296536E+00
         -4   -1    0    0    0  501 -0.00000000000E+00  0.00000000000E+00  0.59801034869E+01  0.61463841170E+01  0.14200000000E+01 0.  1.
          4   -1    0    0  501    0  0.00000000000E+00 -0.00000000000E+00 -0.35384268469E+03  0.35384553397E+03  0.14200000000E+01 0. -1.
         23    2    1    2    0    0  0.00000000000E+00  0.00000000000E+00 -0.34786258120E+03  0.35999191808E+03  0.92659622732E+02 0.  0.
        -11    1    3    3    0    0  0.29001193314E+01 -0.45906223153E+02 -0.15241912753E+03  0.15920861300E+03  0.51100000000E-03 0.  1.
         11    1    3    3    0    0 -0.29001193314E+01  0.45906223153E+02 -0.19544345367E+03  0.20078330508E+03  0.51100000000E-03 0. -1.
<mgrwt>
<rscale>  0 0.92659623E+02</rscale>
<asrwt>0</asrwt>
<pdfrwt beam="2">  1        4 0.54450330E-01 0.92659623E+02</pdfrwt>
<pdfrwt beam="1">  1       -4 0.93302619E-03 0.92659623E+02</pdfrwt>
<totfact> 0.15457447E+04</totfact>
</mgrwt>
</event>
<event>
 5    1  0.1133829E+000  0.9359365E+02  0.7818608E-02  0.1294375E+00
         -4   -1    0    0    0  501 -0.00000000000E+00  0.00000000000E+00  0.13715798096E+03  0.13716533141E+03  0.14200000000E+01 0.  1.
          4   -1    0    0  501    0  0.00000000000E+00 -0.00000000000E+00 -0.15927204504E+02  0.15990379711E+02  0.14200000000E+01 0. -1.
         23    2    1    2    0    0  0.00000000000E+00  0.00000000000E+00  0.12123077646E+03  0.15315571112E+03  0.93593646629E+02 0.  0.
        -11    1    3    3    0    0  0.93103969909E+01 -0.39696174673E+02  0.98197995156E+02  0.10632645968E+03  0.51100000000E-03 0.  1.
         11    1    3    3    0    0 -0.93103969909E+01  0.39696174673E+02  0.23032781303E+02  0.46829251442E+02  0.51100000000E-03 0. -1.
<mgrwt>
<rscale>  0 0.93593647E+02</rscale>
<asrwt>0</asrwt>
<pdfrwt beam="2">  1        4 0.24557641E-02 0.93593647E+02</pdfrwt>
<pdfrwt beam="1">  1       -4 0.21106654E-01 0.93593647E+02</pdfrwt>
<totfact> 0.21912276E+04</totfact>
</mgrwt>
</event>
<event>
 5    1  0.1133829E+000  0.9100290E+02  0.7818608E-02  0.1300441E+00
         -4   -1    0    0    0  501 -0.00000000000E+00  0.00000000000E+00  0.21173444874E+03  0.21173921031E+03  0.14200000000E+01 0.  1.
          4   -1    0    0  501    0  0.00000000000E+00 -0.00000000000E+00 -0.97217498487E+01  0.98249081482E+01  0.14200000000E+01 0. -1.
         23    2    1    2    0    0  0.00000000000E+00  0.00000000000E+00  0.20201269889E+03  0.22156411846E+03  0.91002901466E+02 0.  0.
        -11    1    3    3    0    0  0.34890395440E+02  0.26685501473E+02  0.12990917289E+03  0.13713441903E+03  0.51100000000E-03 0.  1.
         11    1    3    3    0    0 -0.34890395440E+02 -0.26685501473E+02  0.72103526002E+02  0.84429699425E+02  0.51100000000E-03 0. -1.
<mgrwt>
<rscale>  0 0.91002901E+02</rscale>
<asrwt>0</asrwt>
<pdfrwt beam="2">  1        4 0.15039554E-02 0.91002901E+02</pdfrwt>
<pdfrwt beam="1">  1       -4 0.32582831E-01 0.91002901E+02</pdfrwt>
<totfact> 0.20623054E+04</totfact>
</mgrwt>
</event>
<event>
 5    1  0.1133829E+000  0.8213838E+02  0.7818608E-02  0.1323090E+00
         -4   -1    0    0    0  501 -0.00000000000E+00  0.00000000000E+00  0.23833107898E+02  0.23875372920E+02  0.14200000000E+01 0.  1.
          4   -1    0    0  501    0  0.00000000000E+00 -0.00000000000E+00 -0.70658287236E+02  0.70672554469E+02  0.14200000000E+01 0. -1.
         23    2    1    2    0    0  0.00000000000E+00  0.00000000000E+00 -0.46825179338E+02  0.94547927389E+02  0.82138378079E+02 0.  0.
        -11    1    3    3    0    0 -0.30449084287E+02 -0.16130507593E+02  0.23093265956E+01  0.34535098070E+02  0.51100000000E-03 0.  1.
         11    1    3    3    0    0  0.30449084287E+02  0.16130507593E+02 -0.49134505934E+02  0.60012829318E+02  0.51100000000E-03 0. -1.
<mgrwt>
<rscale>  0 0.82138378E+02</rscale>
<asrwt>0</asrwt>
<pdfrwt beam="2">  1        4 0.10874854E-01 0.82138378E+02</pdfrwt>
<pdfrwt beam="1">  1       -4 0.36709807E-02 0.82138378E+02</pdfrwt>
<totfact> 0.35485971E+04</totfact>
</mgrwt>
</event>
<event>
 5    1  0.1133829E+000  0.8611818E+02  0.7818608E-02  0.1312534E+00
          4   -1    0    0  501    0  0.00000000000E+00  0.00000000000E+00  0.35435833621E+02  0.35464273634E+02  0.14200000000E+01 0.  1.
         -4   -1    0    0    0  501 -0.00000000000E+00 -0.00000000000E+00 -0.52263245361E+02  0.52282532606E+02  0.14200000000E+01 0. -1.
         23    2    1    2    0    0  0.00000000000E+00  0.00000000000E+00 -0.16827411740E+02  0.87746806240E+02  0.86118175894E+02 0.  0.
        -11    1    3    3    0    0  0.10944366601E+02 -0.24954682623E+02  0.25557021642E+02  0.37358756679E+02  0.51100000000E-03 0.  1.
         11    1    3    3    0    0 -0.10944366601E+02  0.24954682623E+02 -0.42384433383E+02  0.50388049561E+02  0.51100000000E-03 0. -1.
<mgrwt>
<rscale>  0 0.86118176E+02</rscale>
<asrwt>0</asrwt>
<pdfrwt beam="1">  1        4 0.54553380E-02 0.86118176E+02</pdfrwt>
<pdfrwt beam="2">  1       -4 0.80441706E-02 0.86118176E+02</pdfrwt>
<totfact> 0.31779630E+04</totfact>
</mgrwt>
</event>
<event>
 5    1  0.1133829E+000  0.8587798E+02  0.7818608E-02  0.1313152E+00
         -4   -1    0    0    0  501 -0.00000000000E+00  0.00000000000E+00  0.43758108096E+02  0.43781142335E+02  0.14200000000E+01 0.  1.
          4   -1    0    0  501    0  0.00000000000E+00 -0.00000000000E+00 -0.42089111679E+02  0.42113058806E+02  0.14200000000E+01 0. -1.
         23    2    1    2    0    0  0.00000000000E+00  0.00000000000E+00  0.16689964168E+01  0.85894201141E+02  0.85877984609E+02 0.  0.
        -11    1    3    3    0    0 -0.24464488555E+02  0.34989694207E+02 -0.37453574881E+01  0.42858110130E+02  0.51100000000E-03 0.  1.
         11    1    3    3    0    0  0.24464488555E+02 -0.34989694207E+02  0.54143539048E+01  0.43036091010E+02  0.51100000000E-03 0. -1.
<mgrwt>
<rscale>  0 0.85877985E+02</rscale>
<asrwt>0</asrwt>
<pdfrwt beam="2">  1        4 0.64788619E-02 0.85877985E+02</pdfrwt>
<pdfrwt beam="1">  1       -4 0.67356306E-02 0.85877985E+02</pdfrwt>
<totfact> 0.32165002E+04</totfact>
</mgrwt>
</event>
<event>
 5    1  0.1133829E+000  0.9091801E+02  0.7818608E-02  0.1300644E+00
         -4   -1    0    0    0  501 -0.00000000000E+00  0.00000000000E+00  0.65062886439E+02  0.65078380371E+02  0.14200000000E+01 0.  1.
          4   -1    0    0  501    0  0.00000000000E+00 -0.00000000000E+00 -0.31726744464E+02  0.31758506172E+02  0.14200000000E+01 0. -1.
         23    2    1    2    0    0  0.00000000000E+00  0.00000000000E+00  0.33336141974E+02  0.96836886543E+02  0.90918008302E+02 0.  0.
        -11    1    3    3    0    0  0.26728246832E+02  0.27660887255E+02 -0.91372293332E+01  0.39534956969E+02  0.51100000000E-03 0. -1.
         11    1    3    3    0    0 -0.26728246832E+02 -0.27660887255E+02  0.42473371308E+02  0.57301929574E+02  0.51100000000E-03 0.  1.
<mgrwt>
<rscale>  0 0.90918008E+02</rscale>
<asrwt>0</asrwt>
<pdfrwt beam="2">  1        4 0.48846726E-02 0.90918008E+02</pdfrwt>
<pdfrwt beam="1">  1       -4 0.10013310E-01 0.90918008E+02</pdfrwt>
<totfact> 0.26861858E+04</totfact>
</mgrwt>
</event>
<event>
 5    1  0.1133829E+000  0.9802795E+02  0.7818608E-02  0.1284498E+00
         -4   -1    0    0    0  501 -0.00000000000E+00  0.00000000000E+00  0.14727535400E+03  0.14728219952E+03  0.14200000000E+01 0. -1.
          4   -1    0    0  501    0  0.00000000000E+00 -0.00000000000E+00 -0.16273954148E+02  0.16335788429E+02  0.14200000000E+01 0.  1.
         23    2    1    2    0    0  0.00000000000E+00  0.00000000000E+00  0.13100139986E+03  0.16361798795E+03  0.98027951207E+02 0.  0.
        -11    1    3    3    0    0  0.43969355733E+02 -0.17370577486E+02  0.43910025504E+02  0.64522333697E+02  0.51100000000E-03 0.  1.
         11    1    3    3    0    0 -0.43969355733E+02  0.17370577486E+02  0.87091374351E+02  0.99095654256E+02  0.51100000000E-03 0. -1.
<mgrwt>
<rscale>  0 0.98027951E+02</rscale>
<asrwt>0</asrwt>
<pdfrwt beam="2">  1        4 0.25089683E-02 0.98027951E+02</pdfrwt>
<pdfrwt beam="1">  1       -4 0.22663030E-01 0.98027951E+02</pdfrwt>
<totfact> 0.18914220E+04</totfact>
</mgrwt>
</event>
<event>
 5    1  0.1133829E+000  0.8996393E+02  0.7818608E-02  0.1302939E+00
         -4   -1    0    0    0  501 -0.00000000000E+00  0.00000000000E+00  0.15897699574E+03  0.15898333741E+03  0.14200000000E+01 0.  1.
          4   -1    0    0  501    0  0.00000000000E+00 -0.00000000000E+00 -0.12681259914E+02  0.12760515390E+02  0.14200000000E+01 0. -1.
         23    2    1    2    0    0  0.00000000000E+00  0.00000000000E+00  0.14629573583E+03  0.17174385280E+03  0.89963929741E+02 0.  0.
        -11    1    3    3    0    0  0.11613931743E+02 -0.33043705512E+02  0.12702877753E+03  0.13176904115E+03  0.51100000000E-03 0.  1.
         11    1    3    3    0    0 -0.11613931743E+02  0.33043705512E+02  0.19266958298E+02  0.39974811654E+02  0.51100000000E-03 0. -1.
<mgrwt>
<rscale>  0 0.89963930E+02</rscale>
<asrwt>0</asrwt>
<pdfrwt beam="2">  1        4 0.19575475E-02 0.89963930E+02</pdfrwt>
<pdfrwt beam="1">  1       -4 0.24464583E-01 0.89963930E+02</pdfrwt>
<totfact> 0.23452891E+04</totfact>
</mgrwt>
</event>
<event>
 5    1  0.1133829E+000  0.9074057E+02  0.7818608E-02  0.1301068E+00
         -4   -1    0    0    0  501 -0.00000000000E+00  0.00000000000E+00  0.37362162958E+02  0.37389137739E+02  0.14200000000E+01 0.  1.
          4   -1    0    0  501    0  0.00000000000E+00 -0.00000000000E+00 -0.55038834109E+02  0.55057149037E+02  0.14200000000E+01 0. -1.
         23    2    1    2    0    0  0.00000000000E+00  0.00000000000E+00 -0.17676671151E+02  0.92446286776E+02  0.90740571057E+02 0.  0.
        -11    1    3    3    0    0 -0.14137389333E+02 -0.48527250586E+01  0.34804372272E+02  0.37878213357E+02  0.51100000000E-03 0. -1.
         11    1    3    3    0    0  0.14137389333E+02  0.48527250586E+01 -0.52481043423E+02  0.54568073419E+02  0.51100000000E-03 0.  1.
<mgrwt>
<rscale>  0 0.90740571E+02</rscale>
<asrwt>0</asrwt>
<pdfrwt beam="2">  1        4 0.84709968E-02 0.90740571E+02</pdfrwt>
<pdfrwt beam="1">  1       -4 0.57515089E-02 0.90740571E+02</pdfrwt>
<totfact> 0.27287391E+04</totfact>
</mgrwt>
</event>
<event>
 5    1  0.1133829E+000  0.9154863E+02  0.7818608E-02  0.1299144E+00
         -4   -1    0    0    0  501 -0.00000000000E+00  0.00000000000E+00  0.20281070686E+02  0.20330721290E+02  0.14200000000E+01 0.  1.
          4   -1    0    0  501    0  0.00000000000E+00 -0.00000000000E+00 -0.10313164978E+03  0.10314142518E+03  0.14200000000E+01 0. -1.
         23    2    1    2    0    0  0.00000000000E+00  0.00000000000E+00 -0.82850579098E+02  0.12347214647E+03  0.91548634593E+02 0.  0.
        -11    1    3    3    0    0  0.12633918464E+02  0.11261081994E+02 -0.98786675423E+02  0.10022592032E+03  0.51100000000E-03 0. -1.
         11    1    3    3    0    0 -0.12633918464E+02 -0.11261081994E+02  0.15936096325E+02  0.23246226141E+02  0.51100000000E-03 0.  1.
<mgrwt>
<rscale>  0 0.91548635E+02</rscale>
<asrwt>0</asrwt>
<pdfrwt beam="2">  1        4 0.15870979E-01 0.91548635E+02</pdfrwt>
<pdfrwt beam="1">  1       -4 0.31247360E-02 0.91548635E+02</pdfrwt>
<totfact> 0.24802654E+04</totfact>
</mgrwt>
</event>
<event>
 5    1  0.1133829E+000  0.9147496E+02  0.7818608E-02  0.1299319E+00
          4   -1    0    0  501    0  0.00000000000E+00  0.00000000000E+00  0.15981918855E+03  0.15982549681E+03  0.14200000000E+01 0. -1.
         -4   -1    0    0    0  501 -0.00000000000E+00 -0.00000000000E+00 -0.13044174940E+02  0.13121238503E+02  0.14200000000E+01 0.  1.
         23    2    1    2    0    0  0.00000000000E+00  0.00000000000E+00  0.14677501361E+03  0.17294673531E+03  0.91474961784E+02 0.  0.
        -11    1    3    3    0    0  0.19073587348E+02 -0.27551773971E+02  0.13224143034E+03  0.13642103167E+03  0.51100000000E-03 0.  1.
         11    1    3    3    0    0 -0.19073587348E+02  0.27551773971E+02  0.14533583270E+02  0.36525703637E+02  0.51100000000E-03 0. -1.
<mgrwt>
<rscale>  0 0.91474962E+02</rscale>
<asrwt>0</asrwt>
<pdfrwt beam="1">  1        4 0.24593981E-01 0.91474962E+02</pdfrwt>
<pdfrwt beam="2">  1       -4 0.20132093E-02 0.91474962E+02</pdfrwt>
<totfact> 0.22374122E+04</totfact>
</mgrwt>
</event>
<event>
 5    1  0.1133829E+000  0.9192004E+02  0.7818608E-02  0.1298268E+00
          4   -1    0    0  501    0  0.00000000000E+00  0.00000000000E+00  0.76362178292E+02  0.76375380022E+02  0.14200000000E+01 0. -1.
         -4   -1    0    0    0  501 -0.00000000000E+00 -0.00000000000E+00 -0.27628077938E+02  0.27664545732E+02  0.14200000000E+01 0.  1.
         23    2    1    2    0    0  0.00000000000E+00  0.00000000000E+00  0.48734100354E+02  0.10403992575E+03  0.91920039239E+02 0.  0.
        -11    1    3    3    0    0 -0.10431566525E+02 -0.38513044958E+02 -0.14493909994E+01  0.39927095394E+02  0.51100000000E-03 0.  1.
         11    1    3    3    0    0  0.10431566525E+02  0.38513044958E+02  0.50183491353E+02  0.64112830360E+02  0.51100000000E-03 0. -1.
<mgrwt>
<rscale>  0 0.91920039E+02</rscale>
<asrwt>0</asrwt>
<pdfrwt beam="1">  1        4 0.11751848E-01 0.91920039E+02</pdfrwt>
<pdfrwt beam="2">  1       -4 0.42542942E-02 0.91920039E+02</pdfrwt>
<totfact> 0.25639141E+04</totfact>
</mgrwt>
</event>
<event>
 5    1  0.1133829E+000  0.8873572E+02  0.7818608E-02  0.1305943E+00
          4   -1    0    0  501    0  0.00000000000E+00  0.00000000000E+00  0.98168069079E+02  0.98178338684E+02  0.14200000000E+01 0. -1.
         -4   -1    0    0    0  501 -0.00000000000E+00 -0.00000000000E+00 -0.20015945605E+02  0.20066252228E+02  0.14200000000E+01 0.  1.
         23    2    1    2    0    0  0.00000000000E+00  0.00000000000E+00  0.78152123474E+02  0.11824459091E+03  0.88735724917E+02 0.  0.
        -11    1    3    3    0    0  0.44363353644E+01  0.26903617760E+02 -0.75635189011E+01  0.28296511066E+02  0.51100000000E-03 0.  1.
         11    1    3    3    0    0 -0.44363353644E+01 -0.26903617760E+02  0.85715642375E+02  0.89948079846E+02  0.51100000000E-03 0. -1.
<mgrwt>
<rscale>  0 0.88735725E+02</rscale>
<asrwt>0</asrwt>
<pdfrwt beam="1">  1        4 0.15107439E-01 0.88735725E+02</pdfrwt>
<pdfrwt beam="2">  1       -4 0.30840360E-02 0.88735725E+02</pdfrwt>
<totfact> 0.27296084E+04</totfact>
</mgrwt>
</event>
<event>
 5    1  0.1133829E+000  0.9070733E+02  0.7818608E-02  0.1301148E+00
          4   -1    0    0  501    0  0.00000000000E+00  0.00000000000E+00  0.96947827267E+02  0.96958226117E+02  0.14200000000E+01 0. -1.
         -4   -1    0    0    0  501 -0.00000000000E+00 -0.00000000000E+00 -0.21181823168E+02  0.21229367224E+02  0.14200000000E+01 0.  1.
         23    2    1    2    0    0  0.00000000000E+00  0.00000000000E+00  0.75766004099E+02  0.11818759334E+03  0.90707330699E+02 0.  0.
        -11    1    3    3    0    0 -0.13895253422E+01  0.22932757881E+02 -0.13067593362E+02  0.26431121074E+02  0.51100000000E-03 0.  1.
         11    1    3    3    0    0  0.13895253422E+01 -0.22932757881E+02  0.88833597461E+02  0.91756472267E+02  0.51100000000E-03 0. -1.
<mgrwt>
<rscale>  0 0.90707331E+02</rscale>
<asrwt>0</asrwt>
<pdfrwt beam="1">  1        4 0.14919507E-01 0.90707331E+02</pdfrwt>
<pdfrwt beam="2">  1       -4 0.32631992E-02 0.90707331E+02</pdfrwt>
<totfact> 0.25731971E+04</totfact>
</mgrwt>
</event>
<event>
 5    1  0.1133829E+000  0.9202386E+02  0.7818608E-02  0.1298023E+00
         -4   -1    0    0    0  501 -0.00000000000E+00  0.00000000000E+00  0.24638766247E+02  0.24679651581E+02  0.14200000000E+01 0.  1.
          4   -1    0    0  501    0  0.00000000000E+00 -0.00000000000E+00 -0.85807477971E+02  0.85819226725E+02  0.14200000000E+01 0. -1.
         23    2    1    2    0    0  0.00000000000E+00  0.00000000000E+00 -0.61168711724E+02  0.11049887831E+03  0.92023860020E+02 0.  0.
        -11    1    3    3    0    0 -0.15664324499E+02  0.33668242137E+02  0.20396597964E+01  0.37189807783E+02  0.51100000000E-03 0.  1.
         11    1    3    3    0    0  0.15664324499E+02 -0.33668242137E+02 -0.63208371520E+02  0.73309070524E+02  0.51100000000E-03 0. -1.
<mgrwt>
<rscale>  0 0.92023860E+02</rscale>
<asrwt>0</asrwt>
<pdfrwt beam="2">  1        4 0.13205199E-01 0.92023860E+02</pdfrwt>
<pdfrwt beam="1">  1       -4 0.37946282E-02 0.92023860E+02</pdfrwt>
<totfact> 0.25183602E+04</totfact>
</mgrwt>
</event>
<event>
 5    1  0.1133829E+000  0.9107670E+02  0.7818608E-02  0.1300265E+00
         -4   -1    0    0    0  501 -0.00000000000E+00  0.00000000000E+00  0.40533171871E+02  0.40558037698E+02  0.14200000000E+01 0.  1.
          4   -1    0    0  501    0  0.00000000000E+00 -0.00000000000E+00 -0.51111172333E+02  0.51130894157E+02  0.14200000000E+01 0. -1.
         23    2    1    2    0    0  0.00000000000E+00  0.00000000000E+00 -0.10578000462E+02  0.91688931855E+02  0.91076704655E+02 0.  0.
        -11    1    3    3    0    0 -0.29229397508E+02 -0.13411257282E+02 -0.37747351353E+02  0.49589132227E+02  0.51100000000E-03 0. -1.
         11    1    3    3    0    0  0.29229397508E+02  0.13411257282E+02  0.27169350891E+02  0.42099799628E+02  0.51100000000E-03 0.  1.
<mgrwt>
<rscale>  0 0.91076705E+02</rscale>
<asrwt>0</asrwt>
<pdfrwt beam="2">  1        4 0.78666871E-02 0.91076705E+02</pdfrwt>
<pdfrwt beam="1">  1       -4 0.62393024E-02 0.91076705E+02</pdfrwt>
<totfact> 0.27064317E+04</totfact>
</mgrwt>
</event>
<event>
 5    1  0.1133829E+000  0.8936974E+02  0.7818608E-02  0.1304385E+00
          4   -1    0    0  501    0  0.00000000000E+00  0.00000000000E+00  0.68263735178E+01  0.69725013736E+01  0.14200000000E+01 0. -1.
         -4   -1    0    0    0  501 -0.00000000000E+00 -0.00000000000E+00 -0.28925794501E+03  0.28926143046E+03  0.14200000000E+01 0.  1.
         23    2    1    2    0    0  0.00000000000E+00  0.00000000000E+00 -0.28243157149E+03  0.29623393183E+03  0.89369736453E+02 0.  0.
        -11    1    3    3    0    0 -0.34645346380E+02 -0.25838207619E+02 -0.17883792384E+03  0.18398618427E+03  0.51100000000E-03 0. -1.
         11    1    3    3    0    0  0.34645346380E+02  0.25838207619E+02 -0.10359364765E+03  0.11224774756E+03  0.51100000000E-03 0.  1.
<mgrwt>
<rscale>  0 0.89369736E+02</rscale>
<asrwt>0</asrwt>
<pdfrwt beam="1">  1        4 0.10617203E-02 0.89369736E+02</pdfrwt>
<pdfrwt beam="2">  1       -4 0.44512722E-01 0.89369736E+02</pdfrwt>
<totfact> 0.18913204E+04</totfact>
</mgrwt>
</event>
<event>
 5    1  0.1133829E+000  0.8730374E+02  0.7818608E-02  0.1309516E+00
          4   -1    0    0  501    0  0.00000000000E+00  0.00000000000E+00  0.33826877324E+02  0.33856668907E+02  0.14200000000E+01 0. -1.
         -4   -1    0    0    0  501 -0.00000000000E+00 -0.00000000000E+00 -0.56266975823E+02  0.56284891119E+02  0.14200000000E+01 0.  1.
         23    2    1    2    0    0  0.00000000000E+00  0.00000000000E+00 -0.22440098499E+02  0.90141560026E+02  0.87303738885E+02 0.  0.
        -11    1    3    3    0    0  0.26159718415E+02  0.25657803671E+02 -0.35715283530E+02  0.51168693893E+02  0.51100000000E-03 0.  1.
         11    1    3    3    0    0 -0.26159718415E+02 -0.25657803671E+02  0.13275185031E+02  0.38972866133E+02  0.51100000000E-03 0. -1.
<mgrwt>
<rscale>  0 0.87303739E+02</rscale>
<asrwt>0</asrwt>
<pdfrwt beam="1">  1        4 0.52078047E-02 0.87303739E+02</pdfrwt>
<pdfrwt beam="2">  1       -4 0.86601276E-02 0.87303739E+02</pdfrwt>
<totfact> 0.30453728E+04</totfact>
</mgrwt>
</event>
<event>
 5    1  0.1133829E+000  0.9327312E+02  0.7818608E-02  0.1295114E+00
         -4   -1    0    0    0  501 -0.00000000000E+00  0.00000000000E+00  0.14367546160E+03  0.14368247863E+03  0.14200000000E+01 0. -1.
          4   -1    0    0  501    0  0.00000000000E+00 -0.00000000000E+00 -0.15097361823E+02  0.15163994659E+02  0.14200000000E+01 0.  1.
         23    2    1    2    0    0  0.00000000000E+00  0.00000000000E+00  0.12857809978E+03  0.15884647329E+03  0.93273116892E+02 0.  0.
        -11    1    3    3    0    0 -0.30517340957E+02 -0.14312549109E+02  0.11917857147E+03  0.12385349837E+03  0.51100000000E-03 0. -1.
         11    1    3    3    0    0  0.30517340957E+02  0.14312549109E+02  0.93995283080E+01  0.34992974920E+02  0.51100000000E-03 0.  1.
<mgrwt>
<rscale>  0 0.93273117E+02</rscale>
<asrwt>0</asrwt>
<pdfrwt beam="2">  1        4 0.23283364E-02 0.93273117E+02</pdfrwt>
<pdfrwt beam="1">  1       -4 0.22109583E-01 0.93273117E+02</pdfrwt>
<totfact> 0.21854928E+04</totfact>
</mgrwt>
</event>
<event>
 5    1  0.1133829E+000  0.9071004E+02  0.7818608E-02  0.1301141E+00
         -4   -1    0    0    0  501 -0.00000000000E+00  0.00000000000E+00  0.86776273923E+01  0.87930436801E+01  0.14200000000E+01 0.  1.
          4   -1    0    0  501    0  0.00000000000E+00 -0.00000000000E+00 -0.23537170516E+03  0.23537598856E+03  0.14200000000E+01 0. -1.
         23    2    1    2    0    0  0.00000000000E+00  0.00000000000E+00 -0.22669407777E+03  0.24416903224E+03  0.90710040289E+02 0.  0.
        -11    1    3    3    0    0 -0.31759339844E+02  0.86149034815E+01 -0.19736275586E+03  0.20008730502E+03  0.51100000000E-03 0. -1.
         11    1    3    3    0    0  0.31759339844E+02 -0.86149034815E+01 -0.29331321904E+02  0.44081727215E+02  0.51100000000E-03 0.  1.
<mgrwt>
<rscale>  0 0.90710040E+02</rscale>
<asrwt>0</asrwt>
<pdfrwt beam="2">  1        4 0.36220234E-01 0.90710040E+02</pdfrwt>
<pdfrwt beam="1">  1       -4 0.13442274E-02 0.90710040E+02</pdfrwt>
<totfact> 0.19943054E+04</totfact>
</mgrwt>
</event>
<event>
 5    1  0.1133829E+000  0.8908084E+02  0.7818608E-02  0.1305093E+00
          4   -1    0    0  501    0  0.00000000000E+00  0.00000000000E+00  0.55813737827E+01  0.57591781794E+01  0.14200000000E+01 0.  1.
         -4   -1    0    0    0  501 -0.00000000000E+00 -0.00000000000E+00 -0.34968891781E+03  0.34969180093E+03  0.14200000000E+01 0. -1.
         23    2    1    2    0    0  0.00000000000E+00  0.00000000000E+00 -0.34410754403E+03  0.35545097911E+03  0.89080843591E+02 0.  0.
        -11    1    3    3    0    0  0.39689803125E+02 -0.92361239778E+01 -0.10031181789E+03  0.10827302188E+03  0.51100000000E-03 0. -1.
         11    1    3    3    0    0 -0.39689803125E+02  0.92361239778E+01 -0.24379572614E+03  0.24717795723E+03  0.51100000000E-03 0.  1.
<mgrwt>
<rscale>  0 0.89080844E+02</rscale>
<asrwt>0</asrwt>
<pdfrwt beam="1">  1        4 0.87257220E-03 0.89080844E+02</pdfrwt>
<pdfrwt beam="2">  1       -4 0.53812177E-01 0.89080844E+02</pdfrwt>
<totfact> 0.17282727E+04</totfact>
</mgrwt>
</event>
<event>
 5    1  0.1133829E+000  0.9032113E+02  0.7818608E-02  0.1302076E+00
         -4   -1    0    0    0  501 -0.00000000000E+00  0.00000000000E+00  0.19759549727E+02  0.19810507449E+02  0.14200000000E+01 0.  1.
          4   -1    0    0  501    0  0.00000000000E+00 -0.00000000000E+00 -0.10302596831E+03  0.10303575373E+03  0.14200000000E+01 0. -1.
         23    2    1    2    0    0  0.00000000000E+00  0.00000000000E+00 -0.83266418588E+02  0.12284626118E+03  0.90321134968E+02 0.  0.
        -11    1    3    3    0    0 -0.36108058651E+02 -0.26742349087E+02 -0.47796110888E+02  0.65600406634E+02  0.51100000000E-03 0.  1.
         11    1    3    3    0    0  0.36108058651E+02  0.26742349087E+02 -0.35470307700E+02  0.57245854547E+02  0.51100000000E-03 0. -1.
<mgrwt>
<rscale>  0 0.90321135E+02</rscale>
<asrwt>0</asrwt>
<pdfrwt beam="2">  1        4 0.15854821E-01 0.90321135E+02</pdfrwt>
<pdfrwt beam="1">  1       -4 0.30446033E-02 0.90321135E+02</pdfrwt>
<totfact> 0.25758714E+04</totfact>
</mgrwt>
</event>
<event>
 5    1  0.1133829E+000  0.1261302E+03  0.7818608E-02  0.1233314E+00
         -4   -1    0    0    0  501 -0.00000000000E+00  0.00000000000E+00  0.27450954087E+02  0.27487656872E+02  0.14200000000E+01 0. -1.
          4   -1    0    0  501    0  0.00000000000E+00 -0.00000000000E+00 -0.14474707405E+03  0.14475403914E+03  0.14200000000E+01 0.  1.
         23    2    1    2    0    0  0.00000000000E+00  0.00000000000E+00 -0.11729611996E+03  0.17224169601E+03  0.12613017912E+03 0.  0.
        -11    1    3    3    0    0  0.23639264478E+02  0.24592340204E+02  0.13787369111E+02  0.36792520559E+02  0.51100000000E-03 0. -1.
         11    1    3    3    0    0 -0.23639264478E+02 -0.24592340204E+02 -0.13108348908E+03  0.13544917545E+03  0.51100000000E-03 0.  1.
<mgrwt>
<rscale>  0 0.12613018E+03</rscale>
<asrwt>0</asrwt>
<pdfrwt beam="2">  1        4 0.22272139E-01 0.12613018E+03</pdfrwt>
<pdfrwt beam="1">  1       -4 0.42265829E-02 0.12613018E+03</pdfrwt>
<totfact> 0.92661962E+03</totfact>
</mgrwt>
</event>
<event>
 5    1  0.1133829E+000  0.9148741E+02  0.7818608E-02  0.1299289E+00
         -4   -1    0    0    0  501 -0.00000000000E+00  0.00000000000E+00  0.43106355562E+02  0.43129737883E+02  0.14200000000E+01 0.  1.
          4   -1    0    0  501    0  0.00000000000E+00 -0.00000000000E+00 -0.48495472942E+02  0.48516258057E+02  0.14200000000E+01 0. -1.
         23    2    1    2    0    0  0.00000000000E+00  0.00000000000E+00 -0.53891173793E+01  0.91645995940E+02  0.91487408892E+02 0.  0.
        -11    1    3    3    0    0 -0.57288975344E+01 -0.45359260705E+02 -0.12074998392E+01  0.45735553509E+02  0.51100000000E-03 0.  1.
         11    1    3    3    0    0  0.57288975344E+01  0.45359260705E+02 -0.41816175401E+01  0.45910442431E+02  0.51100000000E-03 0. -1.
<mgrwt>
<rscale>  0 0.91487409E+02</rscale>
<asrwt>0</asrwt>
<pdfrwt beam="2">  1        4 0.74642395E-02 0.91487409E+02</pdfrwt>
<pdfrwt beam="1">  1       -4 0.66351445E-02 0.91487409E+02</pdfrwt>
<totfact> 0.26737546E+04</totfact>
</mgrwt>
</event>
<event>
 5    1  0.1133829E+000  0.8957605E+02  0.7818608E-02  0.1303882E+00
         -4   -1    0    0    0  501 -0.00000000000E+00  0.00000000000E+00  0.16845614416E+03  0.16846212900E+03  0.14200000000E+01 0. -1.
          4   -1    0    0  501    0  0.00000000000E+00 -0.00000000000E+00 -0.11859397585E+02  0.11944107798E+02  0.14200000000E+01 0.  1.
         23    2    1    2    0    0  0.00000000000E+00  0.00000000000E+00  0.15659674658E+03  0.18040623679E+03  0.89576052803E+02 0.  0.
        -11    1    3    3    0    0  0.36078238634E+02 -0.25242288705E+02  0.94802721265E+02  0.10452927055E+03  0.51100000000E-03 0.  1.
         11    1    3    3    0    0 -0.36078238634E+02  0.25242288705E+02  0.61794025313E+02  0.75876966245E+02  0.51100000000E-03 0. -1.
<mgrwt>
<rscale>  0 0.89576053E+02</rscale>
<asrwt>0</asrwt>
<pdfrwt beam="2">  1        4 0.18314993E-02 0.89576053E+02</pdfrwt>
<pdfrwt beam="1">  1       -4 0.25923305E-01 0.89576053E+02</pdfrwt>
<totfact> 0.23311595E+04</totfact>
</mgrwt>
</event>
<event>
 5    1  0.1133829E+000  0.1159378E+03  0.7818608E-02  0.1249953E+00
          4   -1    0    0  501    0  0.00000000000E+00  0.00000000000E+00  0.60245879990E+02  0.60262612420E+02  0.14200000000E+01 0. -1.
         -4   -1    0    0    0  501 -0.00000000000E+00 -0.00000000000E+00 -0.55744459334E+02  0.55762542504E+02  0.14200000000E+01 0.  1.
         23    2    1    2    0    0  0.00000000000E+00  0.00000000000E+00  0.45014206553E+01  0.11602515492E+03  0.11593780137E+03 0.  0.
        -11    1    3    3    0    0  0.56692724699E+02 -0.42083291136E+00 -0.98477040887E+01  0.57543196037E+02  0.51100000000E-03 0.  1.
         11    1    3    3    0    0 -0.56692724699E+02  0.42083291136E+00  0.14349124744E+02  0.58481958887E+02  0.51100000000E-03 0. -1.
<mgrwt>
<rscale>  0 0.11593780E+03</rscale>
<asrwt>0</asrwt>
<pdfrwt beam="1">  1        4 0.92712749E-02 0.11593780E+03</pdfrwt>
<pdfrwt beam="2">  1       -4 0.85787489E-02 0.11593780E+03</pdfrwt>
<totfact> 0.13165422E+04</totfact>
</mgrwt>
</event>
<event>
 5    1  0.1133829E+000  0.8482809E+02  0.7818608E-02  0.1315883E+00
          4   -1    0    0  501    0  0.00000000000E+00  0.00000000000E+00  0.57177233232E+02  0.57194863406E+02  0.14200000000E+01 0. -1.
         -4   -1    0    0    0  501 -0.00000000000E+00 -0.00000000000E+00 -0.31424204216E+02  0.31456271403E+02  0.14200000000E+01 0.  1.
         23    2    1    2    0    0  0.00000000000E+00  0.00000000000E+00  0.25753029016E+02  0.88651134809E+02  0.84828092042E+02 0.  0.
        -11    1    3    3    0    0 -0.88977819804E+00 -0.33765176443E+02  0.39685566473E+02  0.52113559004E+02  0.51100000000E-03 0. -1.
         11    1    3    3    0    0  0.88977819804E+00  0.33765176443E+02 -0.13932537457E+02  0.36537575806E+02  0.51100000000E-03 0.  1.
<mgrwt>
<rscale>  0 0.84828092E+02</rscale>
<asrwt>0</asrwt>
<pdfrwt beam="1">  1        4 0.88003203E-02 0.84828092E+02</pdfrwt>
<pdfrwt beam="2">  1       -4 0.48383158E-02 0.84828092E+02</pdfrwt>
<totfact> 0.33022929E+04</totfact>
</mgrwt>
</event>
<event>
 5    1  0.1133829E+000  0.7526626E+02  0.7818608E-02  0.1343048E+00
         -4   -1    0    0    0  501 -0.00000000000E+00  0.00000000000E+00  0.92600267856E+01  0.93682707086E+01  0.14200000000E+01 0.  1.
          4   -1    0    0  501    0  0.00000000000E+00 -0.00000000000E+00 -0.15194230654E+03  0.15194894181E+03  0.14200000000E+01 0. -1.
         23    2    1    2    0    0  0.00000000000E+00  0.00000000000E+00 -0.14268227976E+03  0.16131721252E+03  0.75266261356E+02 0.  0.
        -11    1    3    3    0    0  0.10618940843E+02  0.29487432383E+02 -0.26691681108E+02  0.41166933500E+02  0.51100000000E-03 0.  1.
         11    1    3    3    0    0 -0.10618940843E+02 -0.29487432383E+02 -0.11599059865E+03  0.12015027902E+03  0.51100000000E-03 0. -1.
<mgrwt>
<rscale>  0 0.75266261E+02</rscale>
<asrwt>0</asrwt>
<pdfrwt beam="2">  1        4 0.23384574E-01 0.75266261E+02</pdfrwt>
<pdfrwt beam="1">  1       -4 0.14334565E-02 0.75266261E+02</pdfrwt>
<totfact> 0.38424820E+04</totfact>
</mgrwt>
</event>
<event>
 5    1  0.1133829E+000  0.8345397E+02  0.7818608E-02  0.1319526E+00
          4   -1    0    0  501    0  0.00000000000E+00  0.00000000000E+00  0.73841192899E+01  0.75194160470E+01  0.14200000000E+01 0. -1.
         -4   -1    0    0    0  501 -0.00000000000E+00 -0.00000000000E+00 -0.23351734103E+03  0.23352165845E+03  0.14200000000E+01 0.  1.
         23    2    1    2    0    0  0.00000000000E+00  0.00000000000E+00 -0.22613322174E+03  0.24104107449E+03  0.83453973042E+02 0.  0.
        -11    1    3    3    0    0  0.40667270612E+02  0.58920542155E+01 -0.92119241703E+02  0.10086871613E+03  0.51100000000E-03 0. -1.
         11    1    3    3    0    0 -0.40667270612E+02 -0.58920542155E+01 -0.13401398004E+03  0.14017235836E+03  0.51100000000E-03 0.  1.
<mgrwt>
<rscale>  0 0.83453973E+02</rscale>
<asrwt>0</asrwt>
<pdfrwt beam="1">  1        4 0.11467581E-02 0.83453973E+02</pdfrwt>
<pdfrwt beam="2">  1       -4 0.35936479E-01 0.83453973E+02</pdfrwt>
<totfact> 0.25011787E+04</totfact>
</mgrwt>
</event>
<event>
 5    1  0.1133829E+000  0.9053899E+02  0.7818608E-02  0.1301552E+00
         -4   -1    0    0    0  501 -0.00000000000E+00  0.00000000000E+00  0.78125508298E+02  0.78138412109E+02  0.14200000000E+01 0.  1.
          4   -1    0    0  501    0  0.00000000000E+00 -0.00000000000E+00 -0.26196915974E+02  0.26235373192E+02  0.14200000000E+01 0. -1.
         23    2    1    2    0    0  0.00000000000E+00  0.00000000000E+00  0.51928592325E+02  0.10437378530E+03  0.90538988050E+02 0.  0.
        -11    1    3    3    0    0  0.19355448031E+01  0.40445007953E+02  0.49300611415E+02  0.63797298440E+02  0.51100000000E-03 0.  1.
         11    1    3    3    0    0 -0.19355448031E+01 -0.40445007953E+02  0.26279809094E+01  0.40576486861E+02  0.51100000000E-03 0. -1.
<mgrwt>
<rscale>  0 0.90538988E+02</rscale>
<asrwt>0</asrwt>
<pdfrwt beam="2">  1        4 0.40342456E-02 0.90538988E+02</pdfrwt>
<pdfrwt beam="1">  1       -4 0.12023260E-01 0.90538988E+02</pdfrwt>
<totfact> 0.26692006E+04</totfact>
</mgrwt>
</event>
<event>
 5    1  0.1133829E+000  0.9070374E+02  0.7818608E-02  0.1301156E+00
          4   -1    0    0  501    0  0.00000000000E+00  0.00000000000E+00  0.18492815683E+02  0.18547254025E+02  0.14200000000E+01 0. -1.
         -4   -1    0    0    0  501 -0.00000000000E+00 -0.00000000000E+00 -0.11099869555E+03  0.11100777817E+03  0.14200000000E+01 0.  1.
         23    2    1    2    0    0  0.00000000000E+00  0.00000000000E+00 -0.92505879868E+02  0.12955503219E+03  0.90703740588E+02 0.  0.
        -11    1    3    3    0    0  0.35692340313E+02  0.14315272687E+02 -0.80590045508E+02  0.89295160139E+02  0.51100000000E-03 0.  1.
         11    1    3    3    0    0 -0.35692340313E+02 -0.14315272687E+02 -0.11915834360E+02  0.40259872055E+02  0.51100000000E-03 0. -1.
<mgrwt>
<rscale>  0 0.90703741E+02</rscale>
<asrwt>0</asrwt>
<pdfrwt beam="1">  1        4 0.28499349E-02 0.90703741E+02</pdfrwt>
<pdfrwt beam="2">  1       -4 0.17081608E-01 0.90703741E+02</pdfrwt>
<totfact> 0.25091288E+04</totfact>
</mgrwt>
</event>
<event>
 5    1  0.1133829E+000  0.7664671E+02  0.7818608E-02  0.1338846E+00
          4   -1    0    0  501    0  0.00000000000E+00  0.00000000000E+00  0.30498738367E+02  0.30531777577E+02  0.14200000000E+01 0.  1.
         -4   -1    0    0    0  501 -0.00000000000E+00 -0.00000000000E+00 -0.48085823210E+02  0.48106785319E+02  0.14200000000E+01 0. -1.
         23    2    1    2    0    0  0.00000000000E+00  0.00000000000E+00 -0.17587084842E+02  0.78638562896E+02  0.76646709134E+02 0.  0.
        -11    1    3    3    0    0  0.24495128783E+02  0.11906549911E+01  0.21420882851E+02  0.32561990354E+02  0.51100000000E-03 0.  1.
         11    1    3    3    0    0 -0.24495128783E+02 -0.11906549911E+01 -0.39007967693E+02  0.46076572542E+02  0.51100000000E-03 0. -1.
<mgrwt>
<rscale>  0 0.76646709E+02</rscale>
<asrwt>0</asrwt>
<pdfrwt beam="1">  1        4 0.46962675E-02 0.76646709E+02</pdfrwt>
<pdfrwt beam="2">  1       -4 0.74019729E-02 0.76646709E+02</pdfrwt>
<totfact> 0.44390146E+04</totfact>
</mgrwt>
</event>
<event>
 5    1  0.1133829E+000  0.8989034E+02  0.7818608E-02  0.1303117E+00
          4   -1    0    0  501    0  0.00000000000E+00  0.00000000000E+00  0.20521921823E+03  0.20522413096E+03  0.14200000000E+01 0. -1.
         -4   -1    0    0    0  501 -0.00000000000E+00 -0.00000000000E+00 -0.97871964394E+01  0.98896720949E+01  0.14200000000E+01 0.  1.
         23    2    1    2    0    0  0.00000000000E+00  0.00000000000E+00  0.19543202179E+03  0.21511380306E+03  0.89890339449E+02 0.  0.
        -11    1    3    3    0    0 -0.38862337091E+02 -0.50066422296E+01  0.45029312631E+02  0.59690758974E+02  0.51100000000E-03 0.  1.
         11    1    3    3    0    0  0.38862337091E+02  0.50066422296E+01  0.15040270916E+03  0.15542304409E+03  0.51100000000E-03 0. -1.
<mgrwt>
<rscale>  0 0.89890339E+02</rscale>
<asrwt>0</asrwt>
<pdfrwt beam="1">  1        4 0.31580446E-01 0.89890339E+02</pdfrwt>
<pdfrwt beam="2">  1       -4 0.15139833E-02 0.89890339E+02</pdfrwt>
<totfact> 0.21573336E+04</totfact>
</mgrwt>
</event>
<event>
 5    1  0.1133829E+000  0.8954963E+02  0.7818608E-02  0.1303946E+00
         -4   -1    0    0    0  501 -0.00000000000E+00  0.00000000000E+00  0.11299505874E+02  0.11388381491E+02  0.14200000000E+01 0.  1.
          4   -1    0    0  501    0  0.00000000000E+00 -0.00000000000E+00 -0.17663553383E+03  0.17664124153E+03  0.14200000000E+01 0. -1.
         23    2    1    2    0    0  0.00000000000E+00  0.00000000000E+00 -0.16533602795E+03  0.18802962302E+03  0.89549634255E+02 0.  0.
        -11    1    3    3    0    0 -0.15769867412E+02  0.23221227321E+02 -0.15591412563E+03  0.15842073314E+03  0.51100000000E-03 0. -1.
         11    1    3    3    0    0  0.15769867412E+02 -0.23221227321E+02 -0.94219023191E+01  0.29608889883E+02  0.51100000000E-03 0.  1.
<mgrwt>
<rscale>  0 0.89549634E+02</rscale>
<asrwt>0</asrwt>
<pdfrwt beam="2">  1        4 0.27181971E-01 0.89549634E+02</pdfrwt>
<pdfrwt beam="1">  1       -4 0.17456613E-02 0.89549634E+02</pdfrwt>
<totfact> 0.22976295E+04</totfact>
</mgrwt>
</event>
<event>
 5    1  0.1133829E+000  0.1013330E+03  0.7818608E-02  0.1277518E+00
          4   -1    0    0  501    0  0.00000000000E+00  0.00000000000E+00  0.16824778125E+03  0.16825377350E+03  0.14200000000E+01 0. -1.
         -4   -1    0    0    0  501 -0.00000000000E+00 -0.00000000000E+00 -0.15218495848E+02  0.15284600612E+02  0.14200000000E+01 0.  1.
         23    2    1    2    0    0  0.00000000000E+00  0.00000000000E+00  0.15302928540E+03  0.18353837411E+03  0.10133297874E+03 0.  0.
        -11    1    3    3    0    0  0.30024443225E+02 -0.45271905419E+01  0.30503590839E+01  0.30516673082E+02  0.51100000000E-03 0.  1.
         11    1    3    3    0    0 -0.30024443225E+02  0.45271905419E+01  0.14997892632E+03  0.15302170103E+03  0.51100000000E-03 0. -1.
<mgrwt>
<rscale>  0 0.10133298E+03</rscale>
<asrwt>0</asrwt>
<pdfrwt beam="1">  1        4 0.25889820E-01 0.10133298E+03</pdfrwt>
<pdfrwt beam="2">  1       -4 0.23468530E-02 0.10133298E+03</pdfrwt>
<totfact> 0.16605656E+04</totfact>
</mgrwt>
</event>
<event>
 5    1  0.1133829E+000  0.1173440E+03  0.7818608E-02  0.1247544E+00
         -4   -1    0    0    0  501 -0.00000000000E+00  0.00000000000E+00  0.14328565316E+03  0.14329268929E+03  0.14200000000E+01 0.  1.
          4   -1    0    0  501    0  0.00000000000E+00 -0.00000000000E+00 -0.23996145666E+02  0.24038124029E+02  0.14200000000E+01 0. -1.
         23    2    1    2    0    0  0.00000000000E+00  0.00000000000E+00  0.11928950750E+03  0.16733081331E+03  0.11734400064E+03 0.  0.
        -11    1    3    3    0    0 -0.14312866507E+02  0.20110720969E+02  0.13554554769E+03  0.13777479720E+03  0.51100000000E-03 0.  1.
         11    1    3    3    0    0  0.14312866507E+02 -0.20110720969E+02 -0.16256040190E+02  0.29556016113E+02  0.51100000000E-03 0. -1.
<mgrwt>
<rscale>  0 0.11734400E+03</rscale>
<asrwt>0</asrwt>
<pdfrwt beam="2">  1        4 0.36954851E-02 0.11734400E+03</pdfrwt>
<pdfrwt beam="1">  1       -4 0.22047717E-01 0.11734400E+03</pdfrwt>
<totfact> 0.11449461E+04</totfact>
</mgrwt>
</event>
<event>
 5    1  0.1133829E+000  0.9114021E+02  0.7818608E-02  0.1300114E+00
          4   -1    0    0  501    0  0.00000000000E+00  0.00000000000E+00  0.34224062660E+02  0.34253508798E+02  0.14200000000E+01 0.  1.
         -4   -1    0    0    0  501 -0.00000000000E+00 -0.00000000000E+00 -0.60613755229E+02  0.60630386136E+02  0.14200000000E+01 0. -1.
         23    2    1    2    0    0  0.00000000000E+00  0.00000000000E+00 -0.26389692569E+02  0.94883894933E+02  0.91140208711E+02 0.  0.
        -11    1    3    3    0    0 -0.33749650568E+02  0.19975747568E+02 -0.37355103349E+02  0.54161546791E+02  0.51100000000E-03 0. -1.
         11    1    3    3    0    0  0.33749650568E+02 -0.19975747568E+02  0.10965410781E+02  0.40722348142E+02  0.51100000000E-03 0.  1.
<mgrwt>
<rscale>  0 0.91140209E+02</rscale>
<asrwt>0</asrwt>
<pdfrwt beam="1">  1        4 0.52687848E-02 0.91140209E+02</pdfrwt>
<pdfrwt beam="2">  1       -4 0.93287375E-02 0.91140209E+02</pdfrwt>
<totfact> 0.26808442E+04</totfact>
</mgrwt>
</event>
<event>
 5    1  0.1133829E+000  0.8465282E+02  0.7818608E-02  0.1316343E+00
         -4   -1    0    0    0  501 -0.00000000000E+00  0.00000000000E+00  0.66786114665E+02  0.66801208912E+02  0.14200000000E+01 0.  1.
          4   -1    0    0  501    0  0.00000000000E+00 -0.00000000000E+00 -0.26787880841E+02  0.26825490861E+02  0.14200000000E+01 0. -1.
         23    2    1    2    0    0  0.00000000000E+00  0.00000000000E+00  0.39998233825E+02  0.93626699773E+02  0.84652821579E+02 0.  0.
        -11    1    3    3    0    0 -0.38795628777E+02  0.16642634352E+02  0.16599700963E+02  0.45361086437E+02  0.51100000000E-03 0.  1.
         11    1    3    3    0    0  0.38795628777E+02 -0.16642634352E+02  0.23398532862E+02  0.48265613336E+02  0.51100000000E-03 0. -1.
<mgrwt>
<rscale>  0 0.84652822E+02</rscale>
<asrwt>0</asrwt>
<pdfrwt beam="2">  1        4 0.41252667E-02 0.84652822E+02</pdfrwt>
<pdfrwt beam="1">  1       -4 0.10278841E-01 0.84652822E+02</pdfrwt>
<totfact> 0.32808031E+04</totfact>
</mgrwt>
</event>
<event>
 5    1  0.1133829E+000  0.9296800E+02  0.7818608E-02  0.1295819E+00
         -4   -1    0    0    0  501 -0.00000000000E+00  0.00000000000E+00  0.31470630441E+02  0.31502650370E+02  0.14200000000E+01 0.  1.
          4   -1    0    0  501    0  0.00000000000E+00 -0.00000000000E+00 -0.68585361525E+02  0.68600059880E+02  0.14200000000E+01 0. -1.
         23    2    1    2    0    0  0.00000000000E+00  0.00000000000E+00 -0.37114731084E+02  0.10010271025E+03  0.92968001678E+02 0.  0.
        -11    1    3    3    0    0  0.18140137240E+02 -0.15677643069E+02  0.24322311708E+02  0.34153007457E+02  0.51100000000E-03 0.  1.
         11    1    3    3    0    0 -0.18140137240E+02  0.15677643069E+02 -0.61437042792E+02  0.65949702793E+02  0.51100000000E-03 0. -1.
<mgrwt>
<rscale>  0 0.92968002E+02</rscale>
<asrwt>0</asrwt>
<pdfrwt beam="2">  1        4 0.10555188E-01 0.92968002E+02</pdfrwt>
<pdfrwt beam="1">  1       -4 0.48452292E-02 0.92968002E+02</pdfrwt>
<totfact> 0.25088898E+04</totfact>
</mgrwt>
</event>
<event>
 5    1  0.1133829E+000  0.9049914E+02  0.7818608E-02  0.1301647E+00
         -4   -1    0    0    0  501 -0.00000000000E+00  0.00000000000E+00  0.21899156814E+02  0.21945146825E+02  0.14200000000E+01 0.  1.
          4   -1    0    0  501    0  0.00000000000E+00 -0.00000000000E+00 -0.93348352488E+02  0.93359152268E+02  0.14200000000E+01 0. -1.
         23    2    1    2    0    0  0.00000000000E+00  0.00000000000E+00 -0.71449195674E+02  0.11530429909E+03  0.90499137161E+02 0.  0.
        -11    1    3    3    0    0  0.16068286811E+02 -0.40309923346E+02 -0.19386192160E+02  0.47527930819E+02  0.51100000000E-03 0.  1.
         11    1    3    3    0    0 -0.16068286811E+02  0.40309923346E+02 -0.52063003514E+02  0.67776368274E+02  0.51100000000E-03 0. -1.
<mgrwt>
<rscale>  0 0.90499137E+02</rscale>
<asrwt>0</asrwt>
<pdfrwt beam="2">  1        4 0.14365653E-01 0.90499137E+02</pdfrwt>
<pdfrwt beam="1">  1       -4 0.33734695E-02 0.90499137E+02</pdfrwt>
<totfact> 0.26061241E+04</totfact>
</mgrwt>
</event>
<event>
 5    1  0.1133829E+000  0.9545151E+02  0.7818608E-02  0.1290162E+00
         -4   -1    0    0    0  501 -0.00000000000E+00  0.00000000000E+00  0.16563225721E+03  0.16563834408E+03  0.14200000000E+01 0.  1.
          4   -1    0    0  501    0  0.00000000000E+00 -0.00000000000E+00 -0.13708823176E+02  0.13782170834E+02  0.14200000000E+01 0. -1.
         23    2    1    2    0    0  0.00000000000E+00  0.00000000000E+00  0.15192343403E+03  0.17942051491E+03  0.95451513148E+02 0.  0.
        -11    1    3    3    0    0 -0.53917672112E+00  0.47536091805E+02  0.83887091566E+02  0.96421029175E+02  0.51100000000E-03 0.  1.
         11    1    3    3    0    0  0.53917672112E+00 -0.47536091805E+02  0.68036342469E+02  0.82999485736E+02  0.51100000000E-03 0. -1.
<mgrwt>
<rscale>  0 0.95451513E+02</rscale>
<asrwt>0</asrwt>
<pdfrwt beam="2">  1        4 0.21151600E-02 0.95451513E+02</pdfrwt>
<pdfrwt beam="1">  1       -4 0.25487997E-01 0.95451513E+02</pdfrwt>
<totfact> 0.19689606E+04</totfact>
</mgrwt>
</event>
<event>
 5    1  0.1133829E+000  0.9074194E+02  0.7818608E-02  0.1301065E+00
         -4   -1    0    0    0  501 -0.00000000000E+00  0.00000000000E+00  0.19213862814E+02  0.19266263889E+02  0.14200000000E+01 0.  1.
          4   -1    0    0  501    0  0.00000000000E+00 -0.00000000000E+00 -0.10693447097E+03  0.10694389876E+03  0.14200000000E+01 0. -1.
         23    2    1    2    0    0  0.00000000000E+00  0.00000000000E+00 -0.87720608158E+02  0.12621016265E+03  0.90741942123E+02 0.  0.
        -11    1    3    3    0    0 -0.23882321746E+02 -0.29251568492E+02 -0.88804174994E+01  0.38792800446E+02  0.51100000000E-03 0.  1.
         11    1    3    3    0    0  0.23882321746E+02  0.29251568492E+02 -0.78840190658E+02  0.87417362203E+02  0.51100000000E-03 0. -1.
<mgrwt>
<rscale>  0 0.90741942E+02</rscale>
<asrwt>0</asrwt>
<pdfrwt beam="2">  1        4 0.16456213E-01 0.90741942E+02</pdfrwt>
<pdfrwt beam="1">  1       -4 0.29607350E-02 0.90741942E+02</pdfrwt>
<totfact> 0.25248812E+04</totfact>
</mgrwt>
</event>
<event>
 5    1  0.1133829E+000  0.9196593E+02  0.7818608E-02  0.1298160E+00
         -4   -1    0    0    0  501 -0.00000000000E+00  0.00000000000E+00  0.93715428311E+02  0.93726185795E+02  0.14200000000E+01 0.  1.
          4   -1    0    0  501    0  0.00000000000E+00 -0.00000000000E+00 -0.22527862320E+02  0.22572571424E+02  0.14200000000E+01 0. -1.
         23    2    1    2    0    0  0.00000000000E+00  0.00000000000E+00  0.71187565991E+02  0.11629875722E+03  0.91965925097E+02 0.  0.
        -11    1    3    3    0    0  0.61403604930E+01 -0.41421106807E+02  0.11565972446E+02  0.43441729190E+02  0.51100000000E-03 0. -1.
         11    1    3    3    0    0 -0.61403604930E+01  0.41421106807E+02  0.59621593545E+02  0.72857028029E+02  0.51100000000E-03 0.  1.
<mgrwt>
<rscale>  0 0.91965925E+02</rscale>
<asrwt>0</asrwt>
<pdfrwt beam="2">  1        4 0.34700917E-02 0.91965925E+02</pdfrwt>
<pdfrwt beam="1">  1       -4 0.14422025E-01 0.91965925E+02</pdfrwt>
<totfact> 0.24896101E+04</totfact>
</mgrwt>
</event>
<event>
 5    1  0.1133829E+000  0.9011245E+02  0.7818608E-02  0.1302580E+00
          4   -1    0    0  501    0  0.00000000000E+00  0.00000000000E+00  0.31530090687E+02  0.31562050293E+02  0.14200000000E+01 0. -1.
         -4   -1    0    0    0  501 -0.00000000000E+00 -0.00000000000E+00 -0.64312531811E+02  0.64328206472E+02  0.14200000000E+01 0.  1.
         23    2    1    2    0    0  0.00000000000E+00  0.00000000000E+00 -0.32782441124E+02  0.95890256765E+02  0.90112445846E+02 0.  0.
        -11    1    3    3    0    0 -0.27570692226E+02 -0.33133759809E+02 -0.24324401233E+01  0.43172976202E+02  0.51100000000E-03 0. -1.
         11    1    3    3    0    0  0.27570692226E+02  0.33133759809E+02 -0.30350001001E+02  0.52717280563E+02  0.51100000000E-03 0.  1.
<mgrwt>
<rscale>  0 0.90112446E+02</rscale>
<asrwt>0</asrwt>
<pdfrwt beam="1">  1        4 0.48544474E-02 0.90112446E+02</pdfrwt>
<pdfrwt beam="2">  1       -4 0.98978998E-02 0.90112446E+02</pdfrwt>
<totfact> 0.27577680E+04</totfact>
</mgrwt>
</event>
<event>
 5    1  0.1133829E+000  0.9210661E+02  0.7818608E-02  0.1297829E+00
          4   -1    0    0  501    0  0.00000000000E+00  0.00000000000E+00  0.19397668623E+03  0.19398188369E+03  0.14200000000E+01 0. -1.
         -4   -1    0    0    0  501 -0.00000000000E+00 -0.00000000000E+00 -0.10882352692E+02  0.10974607059E+02  0.14200000000E+01 0.  1.
         23    2    1    2    0    0  0.00000000000E+00  0.00000000000E+00  0.18309433354E+03  0.20495649075E+03  0.92106612832E+02 0.  0.
        -11    1    3    3    0    0  0.83518945923E+01  0.35634877795E+02  0.15374598082E+03  0.15804247934E+03  0.51100000000E-03 0. -1.
         11    1    3    3    0    0 -0.83518945923E+01 -0.35634877795E+02  0.29348352718E+02  0.46914011407E+02  0.51100000000E-03 0.  1.
<mgrwt>
<rscale>  0 0.92106613E+02</rscale>
<asrwt>0</asrwt>
<pdfrwt beam="1">  1        4 0.29850064E-01 0.92106613E+02</pdfrwt>
<pdfrwt beam="2">  1       -4 0.16817044E-02 0.92106613E+02</pdfrwt>
<totfact> 0.20612225E+04</totfact>
</mgrwt>
</event>
<event>
 5    1  0.1133829E+000  0.9175214E+02  0.7818608E-02  0.1298663E+00
          4   -1    0    0  501    0  0.00000000000E+00  0.00000000000E+00  0.66000461488E+02  0.66015735372E+02  0.14200000000E+01 0. -1.
         -4   -1    0    0    0  501 -0.00000000000E+00 -0.00000000000E+00 -0.31853080864E+02  0.31884716723E+02  0.14200000000E+01 0.  1.
         23    2    1    2    0    0  0.00000000000E+00  0.00000000000E+00  0.34147380624E+02  0.97900452095E+02  0.91752138486E+02 0.  0.
        -11    1    3    3    0    0  0.26910052717E+02  0.21350564444E+02 -0.15371419533E+02  0.37633470184E+02  0.51100000000E-03 0.  1.
         11    1    3    3    0    0 -0.26910052717E+02 -0.21350564444E+02  0.49518800158E+02  0.60266981911E+02  0.51100000000E-03 0. -1.
<mgrwt>
<rscale>  0 0.91752138E+02</rscale>
<asrwt>0</asrwt>
<pdfrwt beam="1">  1        4 0.10157526E-01 0.91752138E+02</pdfrwt>
<pdfrwt beam="2">  1       -4 0.49040824E-02 0.91752138E+02</pdfrwt>
<totfact> 0.26138183E+04</totfact>
</mgrwt>
</event>
<event>
 5    1  0.1133829E+000  0.9110343E+02  0.7818608E-02  0.1300201E+00
          4   -1    0    0  501    0  0.00000000000E+00  0.00000000000E+00  0.67119577974E+01  0.68605231196E+01  0.14200000000E+01 0. -1.
         -4   -1    0    0    0  501 -0.00000000000E+00 -0.00000000000E+00 -0.30560943211E+03  0.30561273108E+03  0.14200000000E+01 0.  1.
         23    2    1    2    0    0  0.00000000000E+00  0.00000000000E+00 -0.29889747432E+03  0.31247325420E+03  0.91103427137E+02 0.  0.
        -11    1    3    3    0    0  0.30030772847E+01 -0.42980743582E+02 -0.98738100968E+02  0.10772917606E+03  0.51100000000E-03 0.  1.
         11    1    3    3    0    0 -0.30030772847E+01  0.42980743582E+02 -0.20015937335E+03  0.20474407814E+03  0.51100000000E-03 0. -1.
<mgrwt>
<rscale>  0 0.91103427E+02</rscale>
<asrwt>0</asrwt>
<pdfrwt beam="1">  1        4 0.10442910E-02 0.91103427E+02</pdfrwt>
<pdfrwt beam="2">  1       -4 0.47028507E-01 0.91103427E+02</pdfrwt>
<totfact> 0.17483758E+04</totfact>
</mgrwt>
</event>
<event>
 5    1  0.1133829E+000  0.9177958E+02  0.7818608E-02  0.1298599E+00
         -4   -1    0    0    0  501 -0.00000000000E+00  0.00000000000E+00  0.40229637351E+02  0.40254690675E+02  0.14200000000E+01 0. -1.
          4   -1    0    0  501    0  0.00000000000E+00 -0.00000000000E+00 -0.52295319021E+02  0.52314594441E+02  0.14200000000E+01 0.  1.
         23    2    1    2    0    0  0.00000000000E+00  0.00000000000E+00 -0.12065681670E+02  0.92569285116E+02  0.91779583093E+02 0.  0.
        -11    1    3    3    0    0 -0.42397432088E+02  0.81806733269E+01 -0.21703816362E+02  0.48327231543E+02  0.51100000000E-03 0.  1.
         11    1    3    3    0    0  0.42397432088E+02 -0.81806733269E+01  0.96381346917E+01  0.44242053573E+02  0.51100000000E-03 0. -1.
<mgrwt>
<rscale>  0 0.91779583E+02</rscale>
<asrwt>0</asrwt>
<pdfrwt beam="2">  1        4 0.80488436E-02 0.91779583E+02</pdfrwt>
<pdfrwt beam="1">  1       -4 0.61925849E-02 0.91779583E+02</pdfrwt>
<totfact> 0.26448712E+04</totfact>
</mgrwt>
</event>
<event>
 5    1  0.1133829E+000  0.9089888E+02  0.7818608E-02  0.1300689E+00
          4   -1    0    0  501    0  0.00000000000E+00  0.00000000000E+00  0.60711317570E+02  0.60727921758E+02  0.14200000000E+01 0.  1.
         -4   -1    0    0    0  501 -0.00000000000E+00 -0.00000000000E+00 -0.33988075555E+02  0.34017725966E+02  0.14200000000E+01 0. -1.
         23    2    1    2    0    0  0.00000000000E+00  0.00000000000E+00  0.26723242015E+02  0.94745647725E+02  0.90898878425E+02 0.  0.
        -11    1    3    3    0    0  0.27294822108E+02 -0.32047929050E+01  0.51092619434E+02  0.58014944389E+02  0.51100000000E-03 0.  1.
         11    1    3    3    0    0 -0.27294822108E+02  0.32047929050E+01 -0.24369377419E+02  0.36730703336E+02  0.51100000000E-03 0. -1.
<mgrwt>
<rscale>  0 0.90898878E+02</rscale>
<asrwt>0</asrwt>
<pdfrwt beam="1">  1        4 0.93437607E-02 0.90898878E+02</pdfrwt>
<pdfrwt beam="2">  1       -4 0.52324928E-02 0.90898878E+02</pdfrwt>
<totfact> 0.27010691E+04</totfact>
</mgrwt>
</event>
<event>
 5    1  0.1133829E+000  0.9128473E+02  0.7818608E-02  0.1299770E+00
         -4   -1    0    0    0  501 -0.00000000000E+00  0.00000000000E+00  0.41617577658E+02  0.41641795952E+02  0.14200000000E+01 0.  1.
          4   -1    0    0  501    0  0.00000000000E+00 -0.00000000000E+00 -0.50007522346E+02  0.50027679251E+02  0.14200000000E+01 0. -1.
         23    2    1    2    0    0  0.00000000000E+00  0.00000000000E+00 -0.83899446886E+01  0.91669475203E+02  0.91284727705E+02 0.  0.
        -11    1    3    3    0    0  0.48304145584E+00 -0.43108382130E+02 -0.19246790245E+02  0.47212338154E+02  0.51100000000E-03 0.  1.
         11    1    3    3    0    0 -0.48304145584E+00  0.43108382130E+02  0.10856845556E+02  0.44457137049E+02  0.51100000000E-03 0. -1.
<mgrwt>
<rscale>  0 0.91284728E+02</rscale>
<asrwt>0</asrwt>
<pdfrwt beam="2">  1        4 0.76968785E-02 0.91284728E+02</pdfrwt>
<pdfrwt beam="1">  1       -4 0.64061177E-02 0.91284728E+02</pdfrwt>
<totfact> 0.26898006E+04</totfact>
</mgrwt>
</event>
<event>
 5    1  0.1133829E+000  0.1088878E+03  0.7818608E-02  0.1262643E+00
         -4   -1    0    0    0  501 -0.00000000000E+00  0.00000000000E+00  0.36911367896E+02  0.36938671876E+02  0.14200000000E+01 0.  1.
          4   -1    0    0  501    0  0.00000000000E+00 -0.00000000000E+00 -0.80240971239E+02  0.80253534909E+02  0.14200000000E+01 0. -1.
         23    2    1    2    0    0  0.00000000000E+00  0.00000000000E+00 -0.43329603343E+02  0.11719220678E+03  0.10888782671E+03 0.  0.
        -11    1    3    3    0    0  0.37131571748E+02  0.25141551190E+02  0.11565292795E+02  0.46309904064E+02  0.51100000000E-03 0.  1.
         11    1    3    3    0    0 -0.37131571748E+02 -0.25141551190E+02 -0.54894896138E+02  0.70882302721E+02  0.51100000000E-03 0. -1.
<mgrwt>
<rscale>  0 0.10888783E+03</rscale>
<asrwt>0</asrwt>
<pdfrwt beam="2">  1        4 0.12347832E-01 0.10888783E+03</pdfrwt>
<pdfrwt beam="1">  1       -4 0.56817387E-02 0.10888783E+03</pdfrwt>
<totfact> 0.15642512E+04</totfact>
</mgrwt>
</event>
<event>
 5    1  0.1133829E+000  0.9014667E+02  0.7818608E-02  0.1302497E+00
         -4   -1    0    0    0  501 -0.00000000000E+00  0.00000000000E+00  0.79381640633E+02  0.79394340286E+02  0.14200000000E+01 0.  1.
          4   -1    0    0  501    0  0.00000000000E+00 -0.00000000000E+00 -0.25558430986E+02  0.25597847458E+02  0.14200000000E+01 0. -1.
         23    2    1    2    0    0  0.00000000000E+00  0.00000000000E+00  0.53823209647E+02  0.10499218774E+03  0.90146667108E+02 0.  0.
        -11    1    3    3    0    0 -0.98841740076E+01  0.16052991091E+02 -0.20772268053E+02  0.28051426686E+02  0.51100000000E-03 0. -1.
         11    1    3    3    0    0  0.98841740076E+01 -0.16052991091E+02  0.74595477700E+02  0.76940761059E+02  0.51100000000E-03 0.  1.
<mgrwt>
<rscale>  0 0.90146667E+02</rscale>
<asrwt>0</asrwt>
<pdfrwt beam="2">  1        4 0.39360753E-02 0.90146667E+02</pdfrwt>
<pdfrwt beam="1">  1       -4 0.12216569E-01 0.90146667E+02</pdfrwt>
<totfact> 0.26967917E+04</totfact>
</mgrwt>
</event>
<event>
 5    1  0.1133829E+000  0.9546806E+02  0.7818608E-02  0.1290125E+00
          4   -1    0    0  501    0  0.00000000000E+00  0.00000000000E+00  0.91357413606E+02  0.91368448716E+02  0.14200000000E+01 0. -1.
         -4   -1    0    0    0  501 -0.00000000000E+00 -0.00000000000E+00 -0.24908152876E+02  0.24948596748E+02  0.14200000000E+01 0.  1.
         23    2    1    2    0    0  0.00000000000E+00  0.00000000000E+00  0.66449260730E+02  0.11631704546E+03  0.95468061749E+02 0.  0.
        -11    1    3    3    0    0  0.26786521808E+02 -0.23975771372E+02 -0.50370348598E+01  0.36300510793E+02  0.51100000000E-03 0.  1.
         11    1    3    3    0    0 -0.26786521808E+02  0.23975771372E+02  0.71486295590E+02  0.80016534671E+02  0.51100000000E-03 0. -1.
<mgrwt>
<rscale>  0 0.95468062E+02</rscale>
<asrwt>0</asrwt>
<pdfrwt beam="1">  1        4 0.14058947E-01 0.95468062E+02</pdfrwt>
<pdfrwt beam="2">  1       -4 0.38359834E-02 0.95468062E+02</pdfrwt>
<totfact> 0.22490814E+04</totfact>
</mgrwt>
</event>
<event>
 5    1  0.1133829E+000  0.8963125E+02  0.7818608E-02  0.1303747E+00
          4   -1    0    0  501    0  0.00000000000E+00  0.00000000000E+00  0.15025462092E+02  0.15092412368E+02  0.14200000000E+01 0. -1.
         -4   -1    0    0    0  501 -0.00000000000E+00 -0.00000000000E+00 -0.13330124420E+03  0.13330880731E+03  0.14200000000E+01 0.  1.
         23    2    1    2    0    0  0.00000000000E+00  0.00000000000E+00 -0.11827578211E+03  0.14840121968E+03  0.89631252181E+02 0.  0.
        -11    1    3    3    0    0  0.37612941282E+02 -0.22032007169E+02 -0.76367980137E+02  0.87932992001E+02  0.51100000000E-03 0.  1.
         11    1    3    3    0    0 -0.37612941282E+02  0.22032007169E+02 -0.41907801976E+02  0.60468227677E+02  0.51100000000E-03 0. -1.
<mgrwt>
<rscale>  0 0.89631252E+02</rscale>
<asrwt>0</asrwt>
<pdfrwt beam="1">  1        4 0.23173414E-02 0.89631252E+02</pdfrwt>
<pdfrwt beam="2">  1       -4 0.20513615E-01 0.89631252E+02</pdfrwt>
<totfact> 0.24868909E+04</totfact>
</mgrwt>
</event>
<event>
 5    1  0.1133829E+000  0.8968577E+02  0.7818608E-02  0.1303614E+00
         -4   -1    0    0    0  501 -0.00000000000E+00  0.00000000000E+00  0.23659461446E+03  0.23659887572E+03  0.14200000000E+01 0.  1.
          4   -1    0    0  501    0  0.00000000000E+00 -0.00000000000E+00 -0.84356029383E+01  0.85542852964E+01  0.14200000000E+01 0. -1.
         23    2    1    2    0    0  0.00000000000E+00  0.00000000000E+00  0.22815901152E+03  0.24515316102E+03  0.89685772659E+02 0.  0.
        -11    1    3    3    0    0 -0.27557916155E+02  0.30969741080E+02  0.16081467707E+03  0.16607204450E+03  0.51100000000E-03 0.  1.
         11    1    3    3    0    0  0.27557916155E+02 -0.30969741080E+02  0.67344334458E+02  0.79081116514E+02  0.51100000000E-03 0. -1.
<mgrwt>
<rscale>  0 0.89685773E+02</rscale>
<asrwt>0</asrwt>
<pdfrwt beam="2">  1        4 0.13072422E-02 0.89685773E+02</pdfrwt>
<pdfrwt beam="1">  1       -4 0.36408630E-01 0.89685773E+02</pdfrwt>
<totfact> 0.20517165E+04</totfact>
</mgrwt>
</event>
<event>
 5    1  0.1133829E+000  0.9332490E+02  0.7818608E-02  0.1294994E+00
          4   -1    0    0  501    0  0.00000000000E+00  0.00000000000E+00  0.11043976965E+02  0.11134892331E+02  0.14200000000E+01 0. -1.
         -4   -1    0    0    0  501 -0.00000000000E+00 -0.00000000000E+00 -0.19625415619E+03  0.19625929334E+03  0.14200000000E+01 0.  1.
         23    2    1    2    0    0  0.00000000000E+00  0.00000000000E+00 -0.18521017923E+03  0.20739418567E+03  0.93324904292E+02 0.  0.
        -11    1    3    3    0    0  0.34935625884E+01 -0.42862526767E+02 -0.13285128788E+03  0.13963833955E+03  0.51100000000E-03 0. -1.
         11    1    3    3    0    0 -0.34935625884E+01  0.42862526767E+02 -0.52358891347E+02  0.67755846123E+02  0.51100000000E-03 0.  1.
<mgrwt>
<rscale>  0 0.93324904E+02</rscale>
<asrwt>0</asrwt>
<pdfrwt beam="1">  1        4 0.17064622E-02 0.93324904E+02</pdfrwt>
<pdfrwt beam="2">  1       -4 0.30200333E-01 0.93324904E+02</pdfrwt>
<totfact> 0.19803945E+04</totfact>
</mgrwt>
</event>
<event>
 5    1  0.1133829E+000  0.9237542E+02  0.7818608E-02  0.1297199E+00
         -4   -1    0    0    0  501 -0.00000000000E+00  0.00000000000E+00  0.14177382111E+02  0.14248317919E+02  0.14200000000E+01 0.  1.
          4   -1    0    0  501    0  0.00000000000E+00 -0.00000000000E+00 -0.15002257766E+03  0.15002929783E+03  0.14200000000E+01 0. -1.
         23    2    1    2    0    0  0.00000000000E+00  0.00000000000E+00 -0.13584519554E+03  0.16427761575E+03  0.92375418171E+02 0.  0.
        -11    1    3    3    0    0  0.40185744331E+02 -0.46184901271E+01 -0.10757185960E+03  0.11492575636E+03  0.51100000000E-03 0.  1.
         11    1    3    3    0    0 -0.40185744331E+02  0.46184901271E+01 -0.28273335947E+02  0.49351859380E+02  0.51100000000E-03 0. -1.
<mgrwt>
<rscale>  0 0.92375418E+02</rscale>
<asrwt>0</asrwt>
<pdfrwt beam="2">  1        4 0.23086369E-01 0.92375418E+02</pdfrwt>
<pdfrwt beam="1">  1       -4 0.21871094E-02 0.92375418E+02</pdfrwt>
<totfact> 0.22181932E+04</totfact>
</mgrwt>
</event>
<event>
 5    1  0.1133829E+000  0.9075354E+02  0.7818608E-02  0.1301037E+00
          4   -1    0    0  501    0  0.00000000000E+00  0.00000000000E+00  0.22448448413E+03  0.22448897527E+03  0.14200000000E+01 0. -1.
         -4   -1    0    0    0  501 -0.00000000000E+00 -0.00000000000E+00 -0.91127843134E+01  0.92227565263E+01  0.14200000000E+01 0.  1.
         23    2    1    2    0    0  0.00000000000E+00  0.00000000000E+00  0.21537169982E+03  0.23371173179E+03  0.90753537092E+02 0.  0.
        -11    1    3    3    0    0  0.38728727761E+02  0.83936727429E+01  0.16461446002E+03  0.16931712419E+03  0.51100000000E-03 0. -1.
         11    1    3    3    0    0 -0.38728727761E+02 -0.83936727429E+01  0.50757239804E+02  0.64394607607E+02  0.51100000000E-03 0.  1.
<mgrwt>
<rscale>  0 0.90753537E+02</rscale>
<asrwt>0</asrwt>
<pdfrwt beam="1">  1        4 0.34544882E-01 0.90753537E+02</pdfrwt>
<pdfrwt beam="2">  1       -4 0.14107716E-02 0.90753537E+02</pdfrwt>
<totfact> 0.20306264E+04</totfact>
</mgrwt>
</event>
<event>
 5    1  0.1133829E+000  0.1010267E+03  0.7818608E-02  0.1278152E+00
         -4   -1    0    0    0  501 -0.00000000000E+00  0.00000000000E+00  0.13906556087E+03  0.13907281049E+03  0.14200000000E+01 0. -1.
          4   -1    0    0  501    0  0.00000000000E+00 -0.00000000000E+00 -0.18312937916E+02  0.18367909383E+02  0.14200000000E+01 0.  1.
         23    2    1    2    0    0  0.00000000000E+00  0.00000000000E+00  0.12075262295E+03  0.15744071988E+03  0.10102665156E+03 0.  0.
        -11    1    3    3    0    0 -0.76627391547E+01 -0.20839972012E+02  0.13108362838E+03  0.13295089182E+03  0.51100000000E-03 0. -1.
         11    1    3    3    0    0  0.76627391547E+01  0.20839972012E+02 -0.10331005434E+02  0.24489828059E+02  0.51100000000E-03 0.  1.
<mgrwt>
<rscale>  0 0.10102665E+03</rscale>
<asrwt>0</asrwt>
<pdfrwt beam="2">  1        4 0.28221613E-02 0.10102665E+03</pdfrwt>
<pdfrwt beam="1">  1       -4 0.21399488E-01 0.10102665E+03</pdfrwt>
<totfact> 0.17647458E+04</totfact>
</mgrwt>
</event>
<event>
 5    1  0.1133829E+000  0.9068665E+02  0.7818608E-02  0.1301197E+00
          4   -1    0    0  501    0  0.00000000000E+00  0.00000000000E+00  0.12517601633E+03  0.12518407033E+03  0.14200000000E+01 0. -1.
         -4   -1    0    0    0  501 -0.00000000000E+00 -0.00000000000E+00 -0.16385717120E+02  0.16447131226E+02  0.14200000000E+01 0.  1.
         23    2    1    2    0    0  0.00000000000E+00  0.00000000000E+00  0.10879029921E+03  0.14163120155E+03  0.90686647594E+02 0.  0.
        -11    1    3    3    0    0 -0.37424736549E+01 -0.44786341867E+02  0.63791015245E+02  0.78032788961E+02  0.51100000000E-03 0. -1.
         11    1    3    3    0    0  0.37424736549E+01  0.44786341867E+02  0.44999283965E+02  0.63598412594E+02  0.51100000000E-03 0.  1.
<mgrwt>
<rscale>  0 0.90686648E+02</rscale>
<asrwt>0</asrwt>
<pdfrwt beam="1">  1        4 0.19263192E-01 0.90686648E+02</pdfrwt>
<pdfrwt beam="2">  1       -4 0.25262233E-02 0.90686648E+02</pdfrwt>
<totfact> 0.24452343E+04</totfact>
</mgrwt>
</event>
<event>
 5    1  0.1133829E+000  0.9065553E+02  0.7818608E-02  0.1301272E+00
         -4   -1    0    0    0  501 -0.00000000000E+00  0.00000000000E+00  0.10481050422E+02  0.10576805659E+02  0.14200000000E+01 0.  1.
          4   -1    0    0  501    0  0.00000000000E+00 -0.00000000000E+00 -0.19504082250E+03  0.19504599161E+03  0.14200000000E+01 0. -1.
         23    2    1    2    0    0  0.00000000000E+00  0.00000000000E+00 -0.18455977208E+03  0.20562279727E+03  0.90655530914E+02 0.  0.
        -11    1    3    3    0    0 -0.38536467988E+02 -0.17042550716E+02 -0.54387177696E+02  0.68800239810E+02  0.51100000000E-03 0.  1.
         11    1    3    3    0    0  0.38536467988E+02  0.17042550716E+02 -0.13017259439E+03  0.13682255746E+03  0.51100000000E-03 0. -1.
<mgrwt>
<rscale>  0 0.90655531E+02</rscale>
<asrwt>0</asrwt>
<pdfrwt beam="2">  1        4 0.30014041E-01 0.90655531E+02</pdfrwt>
<pdfrwt beam="1">  1       -4 0.16202329E-02 0.90655531E+02</pdfrwt>
<totfact> 0.21480208E+04</totfact>
</mgrwt>
</event>
<event>
 5    1  0.1133829E+000  0.8921555E+02  0.7818608E-02  0.1304763E+00
         -4   -1    0    0    0  501 -0.00000000000E+00  0.00000000000E+00  0.92823137602E+02  0.92833998482E+02  0.14200000000E+01 0.  1.
          4   -1    0    0  501    0  0.00000000000E+00 -0.00000000000E+00 -0.21401398744E+02  0.21448456079E+02  0.14200000000E+01 0. -1.
         23    2    1    2    0    0  0.00000000000E+00  0.00000000000E+00  0.71421738858E+02  0.11428245456E+03  0.89215551554E+02 0.  0.
        -11    1    3    3    0    0 -0.99712513956E+01  0.13346713843E+02 -0.17295497658E+02  0.24014471976E+02  0.51100000000E-03 0. -1.
         11    1    3    3    0    0  0.99712513956E+01 -0.13346713843E+02  0.88717236516E+02  0.90267982586E+02  0.51100000000E-03 0.  1.
<mgrwt>
<rscale>  0 0.89215552E+02</rscale>
<asrwt>0</asrwt>
<pdfrwt beam="2">  1        4 0.32969781E-02 0.89215552E+02</pdfrwt>
<pdfrwt beam="1">  1       -4 0.14284938E-01 0.89215552E+02</pdfrwt>
<totfact> 0.27146303E+04</totfact>
</mgrwt>
</event>
<event>
 5    1  0.1133829E+000  0.7945566E+02  0.7818608E-02  0.1330603E+00
          4   -1    0    0  501    0  0.00000000000E+00  0.00000000000E+00  0.17836935710E+02  0.17893369597E+02  0.14200000000E+01 0. -1.
         -4   -1    0    0    0  501 -0.00000000000E+00 -0.00000000000E+00 -0.88283039691E+02  0.88294459040E+02  0.14200000000E+01 0.  1.
         23    2    1    2    0    0  0.00000000000E+00  0.00000000000E+00 -0.70446103981E+02  0.10618782864E+03  0.79455656718E+02 0.  0.
        -11    1    3    3    0    0  0.28136562305E+02 -0.20672988999E+02 -0.98918732569E+01  0.36288948307E+02  0.51100000000E-03 0. -1.
         11    1    3    3    0    0 -0.28136562305E+02  0.20672988999E+02 -0.60554230724E+02  0.69898880329E+02  0.51100000000E-03 0.  1.
<mgrwt>
<rscale>  0 0.79455657E+02</rscale>
<asrwt>0</asrwt>
<pdfrwt beam="1">  1        4 0.27493635E-02 0.79455657E+02</pdfrwt>
<pdfrwt beam="2">  1       -4 0.13587225E-01 0.79455657E+02</pdfrwt>
<totfact> 0.37701573E+04</totfact>
</mgrwt>
</event>
<event>
 5    1  0.1133829E+000  0.9276575E+02  0.7818608E-02  0.1296289E+00
          4   -1    0    0  501    0  0.00000000000E+00  0.00000000000E+00  0.39512026559E+02  0.39537534607E+02  0.14200000000E+01 0. -1.
         -4   -1    0    0    0  501 -0.00000000000E+00 -0.00000000000E+00 -0.54396165417E+02  0.54414696656E+02  0.14200000000E+01 0.  1.
         23    2    1    2    0    0  0.00000000000E+00  0.00000000000E+00 -0.14884138858E+02  0.93952231263E+02  0.92765748904E+02 0.  0.
        -11    1    3    3    0    0 -0.26567570959E+01  0.29085754755E+02 -0.43935294838E+02  0.52757460333E+02  0.51100000000E-03 0.  1.
         11    1    3    3    0    0  0.26567570959E+01 -0.29085754755E+02  0.29051155980E+02  0.41194770930E+02  0.51100000000E-03 0. -1.
<mgrwt>
<rscale>  0 0.92765749E+02</rscale>
<asrwt>0</asrwt>
<pdfrwt beam="1">  1        4 0.60821609E-02 0.92765749E+02</pdfrwt>
<pdfrwt beam="2">  1       -4 0.83720285E-02 0.92765749E+02</pdfrwt>
<totfact> 0.25606075E+04</totfact>
</mgrwt>
</event>
<event>
 5    1  0.1133829E+000  0.9004265E+02  0.7818608E-02  0.1302748E+00
          4   -1    0    0  501    0  0.00000000000E+00  0.00000000000E+00  0.49856159510E+01  0.51838949073E+01  0.14200000000E+01 0.  1.
         -4   -1    0    0    0  501 -0.00000000000E+00 -0.00000000000E+00 -0.39842723826E+03  0.39842976870E+03  0.14200000000E+01 0. -1.
         23    2    1    2    0    0  0.00000000000E+00  0.00000000000E+00 -0.39344162231E+03  0.40361366361E+03  0.90042652596E+02 0.  0.
        -11    1    3    3    0    0  0.29480572179E+02  0.33096967516E+02 -0.23213132570E+03  0.23632491567E+03  0.51100000000E-03 0.  1.
         11    1    3    3    0    0 -0.29480572179E+02 -0.33096967516E+02 -0.16131029661E+03  0.16728874794E+03  0.51100000000E-03 0. -1.
<mgrwt>
<rscale>  0 0.90042653E+02</rscale>
<asrwt>0</asrwt>
<pdfrwt beam="1">  1        4 0.78246503E-03 0.90042653E+02</pdfrwt>
<pdfrwt beam="2">  1       -4 0.61311921E-01 0.90042653E+02</pdfrwt>
<totfact> 0.15571999E+04</totfact>
</mgrwt>
</event>
<event>
 5    1  0.1133829E+000  0.8845223E+02  0.7818608E-02  0.1306644E+00
          4   -1    0    0  501    0  0.00000000000E+00  0.00000000000E+00  0.19046667802E+02  0.19099527595E+02  0.14200000000E+01 0. -1.
         -4   -1    0    0    0  501 -0.00000000000E+00 -0.00000000000E+00 -0.10249238716E+03  0.10250222352E+03  0.14200000000E+01 0.  1.
         23    2    1    2    0    0  0.00000000000E+00  0.00000000000E+00 -0.83445719359E+02  0.12160175111E+03  0.88452234535E+02 0.  0.
        -11    1    3    3    0    0 -0.37718232790E+02 -0.88799552922E+01 -0.71029422065E+02  0.80911664734E+02  0.51100000000E-03 0.  1.
         11    1    3    3    0    0  0.37718232790E+02  0.88799552922E+01 -0.12416297293E+02  0.40690086379E+02  0.51100000000E-03 0. -1.
<mgrwt>
<rscale>  0 0.88452235E+02</rscale>
<asrwt>0</asrwt>
<pdfrwt beam="1">  1        4 0.29350794E-02 0.88452235E+02</pdfrwt>
<pdfrwt beam="2">  1       -4 0.15772882E-01 0.88452235E+02</pdfrwt>
<totfact> 0.27324147E+04</totfact>
</mgrwt>
</event>
<event>
 5    1  0.1133829E+000  0.9287562E+02  0.7818608E-02  0.1296034E+00
          4   -1    0    0  501    0  0.00000000000E+00  0.00000000000E+00  0.27072650920E+02  0.27109865876E+02  0.14200000000E+01 0. -1.
         -4   -1    0    0    0  501 -0.00000000000E+00 -0.00000000000E+00 -0.79556670567E+02  0.79569342286E+02  0.14200000000E+01 0.  1.
         23    2    1    2    0    0  0.00000000000E+00  0.00000000000E+00 -0.52484019647E+02  0.10667920816E+03  0.92875621859E+02 0.  0.
        -11    1    3    3    0    0  0.17778145030E+02 -0.31156012371E+02 -0.60115930361E+02  0.70004890050E+02  0.51100000000E-03 0.  1.
         11    1    3    3    0    0 -0.17778145030E+02  0.31156012371E+02  0.76319107135E+01  0.36674318112E+02  0.51100000000E-03 0. -1.
<mgrwt>
<rscale>  0 0.92875622E+02</rscale>
<asrwt>0</asrwt>
<pdfrwt beam="1">  1        4 0.41688607E-02 0.92875622E+02</pdfrwt>
<pdfrwt beam="2">  1       -4 0.12243325E-01 0.92875622E+02</pdfrwt>
<totfact> 0.24777248E+04</totfact>
</mgrwt>
</event>
<event>
 5    1  0.1133829E+000  0.8901458E+02  0.7818608E-02  0.1305256E+00
         -4   -1    0    0    0  501 -0.00000000000E+00  0.00000000000E+00  0.12543345537E+03  0.12544149284E+03  0.14200000000E+01 0.  1.
          4   -1    0    0  501    0  0.00000000000E+00 -0.00000000000E+00 -0.15751945677E+02  0.15815820960E+02  0.14200000000E+01 0. -1.
         23    2    1    2    0    0  0.00000000000E+00  0.00000000000E+00  0.10968150970E+03  0.14125731380E+03  0.89014578209E+02 0.  0.
        -11    1    3    3    0    0  0.29109405648E+02  0.11696124271E+02  0.10494115289E+03  0.10952991550E+03  0.51100000000E-03 0.  1.
         11    1    3    3    0    0 -0.29109405648E+02 -0.11696124271E+02  0.47403568103E+01  0.31727398304E+02  0.51100000000E-03 0. -1.
<mgrwt>
<rscale>  0 0.89014578E+02</rscale>
<asrwt>0</asrwt>
<pdfrwt beam="2">  1        4 0.24289081E-02 0.89014578E+02</pdfrwt>
<pdfrwt beam="1">  1       -4 0.19302986E-01 0.89014578E+02</pdfrwt>
<totfact> 0.25724908E+04</totfact>
</mgrwt>
</event>
<event>
 5    1  0.1133829E+000  0.9121791E+02  0.7818608E-02  0.1299929E+00
         -4   -1    0    0    0  501 -0.00000000000E+00  0.00000000000E+00  0.38047466298E+02  0.38073955556E+02  0.14200000000E+01 0.  1.
          4   -1    0    0  501    0  0.00000000000E+00 -0.00000000000E+00 -0.54618453897E+02  0.54636909741E+02  0.14200000000E+01 0. -1.
         23    2    1    2    0    0  0.00000000000E+00  0.00000000000E+00 -0.16570987599E+02  0.92710865297E+02  0.91217908955E+02 0.  0.
        -11    1    3    3    0    0  0.29853037119E+02  0.93786144736E+01  0.25439124277E+02  0.40327549874E+02  0.51100000000E-03 0.  1.
         11    1    3    3    0    0 -0.29853037119E+02 -0.93786144736E+01 -0.42010111875E+02  0.52383315423E+02  0.51100000000E-03 0. -1.
<mgrwt>
<rscale>  0 0.91217909E+02</rscale>
<asrwt>0</asrwt>
<pdfrwt beam="2">  1        4 0.84062964E-02 0.91217909E+02</pdfrwt>
<pdfrwt beam="1">  1       -4 0.58569137E-02 0.91217909E+02</pdfrwt>
<totfact> 0.26885023E+04</totfact>
</mgrwt>
</event>
<event>
 5    1  0.1133829E+000  0.9101341E+02  0.7818608E-02  0.1300416E+00
          4   -1    0    0  501    0  0.00000000000E+00  0.00000000000E+00  0.38752774484E+02  0.38778781959E+02  0.14200000000E+01 0. -1.
         -4   -1    0    0    0  501 -0.00000000000E+00 -0.00000000000E+00 -0.53384344798E+02  0.53403227145E+02  0.14200000000E+01 0.  1.
         23    2    1    2    0    0  0.00000000000E+00  0.00000000000E+00 -0.14631570314E+02  0.92182009103E+02  0.91013405345E+02 0.  0.
        -11    1    3    3    0    0 -0.98190675895E+01  0.44010735355E+02 -0.13518226309E+02  0.47075485740E+02  0.51100000000E-03 0.  1.
         11    1    3    3    0    0  0.98190675895E+01 -0.44010735355E+02 -0.11133440048E+01  0.45106523364E+02  0.51100000000E-03 0. -1.
<mgrwt>
<rscale>  0 0.91013405E+02</rscale>
<asrwt>0</asrwt>
<pdfrwt beam="1">  1        4 0.59654184E-02 0.91013405E+02</pdfrwt>
<pdfrwt beam="2">  1       -4 0.82164292E-02 0.91013405E+02</pdfrwt>
<totfact> 0.27083646E+04</totfact>
</mgrwt>
</event>
<event>
 5    1  0.1133829E+000  0.8066455E+02  0.7818608E-02  0.1327176E+00
         -4   -1    0    0    0  501 -0.00000000000E+00  0.00000000000E+00  0.18331398471E+02  0.18386314745E+02  0.14200000000E+01 0. -1.
          4   -1    0    0  501    0  0.00000000000E+00 -0.00000000000E+00 -0.88544701684E+02  0.88556087291E+02  0.14200000000E+01 0.  1.
         23    2    1    2    0    0  0.00000000000E+00  0.00000000000E+00 -0.70213303212E+02  0.10694240204E+03  0.80664548627E+02 0.  0.
        -11    1    3    3    0    0 -0.15707221520E+02  0.18596372310E+02 -0.77740947554E+02  0.81462855326E+02  0.51100000000E-03 0.  1.
         11    1    3    3    0    0  0.15707221520E+02 -0.18596372310E+02  0.75276443413E+01  0.25479546711E+02  0.51100000000E-03 0. -1.
<mgrwt>
<rscale>  0 0.80664549E+02</rscale>
<asrwt>0</asrwt>
<pdfrwt beam="2">  1        4 0.13627362E-01 0.80664549E+02</pdfrwt>
<pdfrwt beam="1">  1       -4 0.28253153E-02 0.80664549E+02</pdfrwt>
<totfact> 0.36154433E+04</totfact>
</mgrwt>
</event>
<event>
 5    1  0.1133829E+000  0.8843967E+02  0.7818608E-02  0.1306675E+00
         -4   -1    0    0    0  501 -0.00000000000E+00  0.00000000000E+00  0.89704687255E+01  0.90821643431E+01  0.14200000000E+01 0.  1.
          4   -1    0    0  501    0  0.00000000000E+00 -0.00000000000E+00 -0.21651851495E+03  0.21652317131E+03  0.14200000000E+01 0. -1.
         23    2    1    2    0    0  0.00000000000E+00  0.00000000000E+00 -0.20754804622E+03  0.22560533566E+03  0.88439674274E+02 0.  0.
        -11    1    3    3    0    0  0.66120525897E+00  0.44138753546E+02 -0.97157639667E+02  0.10671585497E+03  0.51100000000E-03 0.  1.
         11    1    3    3    0    0 -0.66120525897E+00 -0.44138753546E+02 -0.11039040656E+03  0.11888948068E+03  0.51100000000E-03 0. -1.
<mgrwt>
<rscale>  0 0.88439674E+02</rscale>
<asrwt>0</asrwt>
<pdfrwt beam="2">  1        4 0.33319487E-01 0.88439674E+02</pdfrwt>
<pdfrwt beam="1">  1       -4 0.13890224E-02 0.88439674E+02</pdfrwt>
<totfact> 0.22082841E+04</totfact>
</mgrwt>
</event>
<event>
 5    1  0.1133829E+000  0.9053897E+02  0.7818608E-02  0.1301552E+00
         -4   -1    0    0    0  501 -0.00000000000E+00  0.00000000000E+00  0.26979068070E+02  0.27016411936E+02  0.14200000000E+01 0.  1.
          4   -1    0    0  501    0  0.00000000000E+00 -0.00000000000E+00 -0.75863336589E+02  0.75876625113E+02  0.14200000000E+01 0. -1.
         23    2    1    2    0    0  0.00000000000E+00  0.00000000000E+00 -0.48884268520E+02  0.10289303705E+03  0.90538971523E+02 0.  0.
        -11    1    3    3    0    0 -0.44807312435E+02 -0.21821291569E+01 -0.31342680929E+02  0.54724953937E+02  0.51100000000E-03 0.  1.
         11    1    3    3    0    0  0.44807312435E+02  0.21821291569E+01 -0.17541587590E+02  0.48168083112E+02  0.51100000000E-03 0. -1.
<mgrwt>
<rscale>  0 0.90538972E+02</rscale>
<asrwt>0</asrwt>
<pdfrwt beam="2">  1        4 0.11675177E-01 0.90538972E+02</pdfrwt>
<pdfrwt beam="1">  1       -4 0.41545207E-02 0.90538972E+02</pdfrwt>
<totfact> 0.26784135E+04</totfact>
</mgrwt>
</event>
<event>
 5    1  0.1133829E+000  0.9117026E+02  0.7818608E-02  0.1300042E+00
         -4   -1    0    0    0  501 -0.00000000000E+00  0.00000000000E+00  0.28392872728E+02  0.28428359462E+02  0.14200000000E+01 0.  1.
          4   -1    0    0  501    0  0.00000000000E+00 -0.00000000000E+00 -0.73099430307E+02  0.73113221179E+02  0.14200000000E+01 0. -1.
         23    2    1    2    0    0  0.00000000000E+00  0.00000000000E+00 -0.44706557579E+02  0.10154158064E+03  0.91170260000E+02 0.  0.
        -11    1    3    3    0    0  0.34687680821E+02 -0.45799690790E+01 -0.54896981200E+02  0.65099077279E+02  0.51100000000E-03 0. -1.
         11    1    3    3    0    0 -0.34687680821E+02  0.45799690790E+01  0.10190423621E+02  0.36442503362E+02  0.51100000000E-03 0.  1.
<mgrwt>
<rscale>  0 0.91170260E+02</rscale>
<asrwt>0</asrwt>
<pdfrwt beam="2">  1        4 0.11249857E-01 0.91170260E+02</pdfrwt>
<pdfrwt beam="1">  1       -4 0.43719249E-02 0.91170260E+02</pdfrwt>
<totfact> 0.26368356E+04</totfact>
</mgrwt>
</event>
<event>
 5    1  0.1133829E+000  0.9636141E+02  0.7818608E-02  0.1288139E+00
          4   -1    0    0  501    0  0.00000000000E+00  0.00000000000E+00  0.21129571136E+03  0.21130048282E+03  0.14200000000E+01 0. -1.
         -4   -1    0    0    0  501 -0.00000000000E+00 -0.00000000000E+00 -0.10935604500E+02  0.11027413377E+02  0.14200000000E+01 0.  1.
         23    2    1    2    0    0  0.00000000000E+00  0.00000000000E+00  0.20036010686E+03  0.22232789620E+03  0.96361408278E+02 0.  0.
        -11    1    3    3    0    0 -0.17661898556E+02 -0.42637830110E+02  0.68255712025E+02  0.82393989109E+02  0.51100000000E-03 0.  1.
         11    1    3    3    0    0  0.17661898556E+02  0.42637830110E+02  0.13210439484E+03  0.13993390709E+03  0.51100000000E-03 0. -1.
<mgrwt>
<rscale>  0 0.96361408E+02</rscale>
<asrwt>0</asrwt>
<pdfrwt beam="1">  1        4 0.32514463E-01 0.96361408E+02</pdfrwt>
<pdfrwt beam="2">  1       -4 0.16898299E-02 0.96361408E+02</pdfrwt>
<totfact> 0.17660005E+04</totfact>
</mgrwt>
</event>
<event>
 5    1  0.1133829E+000  0.9193885E+02  0.7818608E-02  0.1298223E+00
         -4   -1    0    0    0  501 -0.00000000000E+00  0.00000000000E+00  0.11231794458E+03  0.11232692052E+03  0.14200000000E+01 0. -1.
          4   -1    0    0  501    0  0.00000000000E+00 -0.00000000000E+00 -0.18777803101E+02  0.18831417613E+02  0.14200000000E+01 0.  1.
         23    2    1    2    0    0  0.00000000000E+00  0.00000000000E+00  0.93540141476E+02  0.13115833814E+03  0.91938847040E+02 0.  0.
        -11    1    3    3    0    0  0.14042499505E+01  0.40920954209E+02  0.16958544212E+02  0.44318039592E+02  0.51100000000E-03 0.  1.
         11    1    3    3    0    0 -0.14042499505E+01 -0.40920954209E+02  0.76581597264E+02  0.86840298543E+02  0.51100000000E-03 0. -1.
<mgrwt>
<rscale>  0 0.91938847E+02</rscale>
<asrwt>0</asrwt>
<pdfrwt beam="2">  1        4 0.28937074E-02 0.91938847E+02</pdfrwt>
<pdfrwt beam="1">  1       -4 0.17284498E-01 0.91938847E+02</pdfrwt>
<totfact> 0.24106400E+04</totfact>
</mgrwt>
</event>
<event>
 5    1  0.1133829E+000  0.9214098E+02  0.7818608E-02  0.1297748E+00
          4   -1    0    0  501    0  0.00000000000E+00  0.00000000000E+00  0.12661160973E+03  0.12661957241E+03  0.14200000000E+01 0. -1.
         -4   -1    0    0    0  501 -0.00000000000E+00 -0.00000000000E+00 -0.16725209024E+02  0.16785381047E+02  0.14200000000E+01 0.  1.
         23    2    1    2    0    0  0.00000000000E+00  0.00000000000E+00  0.10988640070E+03  0.14340495346E+03  0.92140976861E+02 0.  0.
        -11    1    3    3    0    0 -0.44113347714E+02 -0.34834260607E+01  0.74896753432E+02  0.86992214471E+02  0.51100000000E-03 0.  1.
         11    1    3    3    0    0  0.44113347714E+02  0.34834260607E+01  0.34989647271E+02  0.56412738987E+02  0.51100000000E-03 0. -1.
<mgrwt>
<rscale>  0 0.92140977E+02</rscale>
<asrwt>0</asrwt>
<pdfrwt beam="1">  1        4 0.19483951E-01 0.92140977E+02</pdfrwt>
<pdfrwt beam="2">  1       -4 0.25783502E-02 0.92140977E+02</pdfrwt>
<totfact> 0.23336314E+04</totfact>
</mgrwt>
</event>
<event>
 5    1  0.1133829E+000  0.9093361E+02  0.7818608E-02  0.1300606E+00
          4   -1    0    0  501    0  0.00000000000E+00  0.00000000000E+00  0.23845782573E+03  0.23846205369E+03  0.14200000000E+01 0. -1.
         -4   -1    0    0    0  501 -0.00000000000E+00 -0.00000000000E+00 -0.86066830497E+01  0.87230380670E+01  0.14200000000E+01 0.  1.
         23    2    1    2    0    0  0.00000000000E+00  0.00000000000E+00  0.22985114268E+03  0.24718509176E+03  0.90933612032E+02 0.  0.
        -11    1    3    3    0    0  0.37715268515E+02  0.45404042224E+01  0.47012939024E+02  0.60442312875E+02  0.51100000000E-03 0.  1.
         11    1    3    3    0    0 -0.37715268515E+02 -0.45404042224E+01  0.18283820365E+03  0.18674277888E+03  0.51100000000E-03 0. -1.
<mgrwt>
<rscale>  0 0.90933612E+02</rscale>
<asrwt>0</asrwt>
<pdfrwt beam="1">  1        4 0.36695093E-01 0.90933612E+02</pdfrwt>
<pdfrwt beam="2">  1       -4 0.13333808E-02 0.90933612E+02</pdfrwt>
<totfact> 0.19703744E+04</totfact>
</mgrwt>
</event>
<event>
 5    1  0.1133829E+000  0.9136972E+02  0.7818608E-02  0.1299568E+00
         -4   -1    0    0    0  501 -0.00000000000E+00  0.00000000000E+00  0.15224616139E+03  0.15225278341E+03  0.14200000000E+01 0.  1.
          4   -1    0    0  501    0  0.00000000000E+00 -0.00000000000E+00 -0.13665050994E+02  0.13738632343E+02  0.14200000000E+01 0. -1.
         23    2    1    2    0    0  0.00000000000E+00  0.00000000000E+00  0.13858111039E+03  0.16599141576E+03  0.91369721172E+02 0.  0.
        -11    1    3    3    0    0 -0.15024859644E+02 -0.43008582276E+02  0.75483859987E+02  0.88166306917E+02  0.51100000000E-03 0.  1.
         11    1    3    3    0    0  0.15024859644E+02  0.43008582276E+02  0.63097250407E+02  0.77825108840E+02  0.51100000000E-03 0. -1.
<mgrwt>
<rscale>  0 0.91369721E+02</rscale>
<asrwt>0</asrwt>
<pdfrwt beam="2">  1        4 0.21084851E-02 0.91369721E+02</pdfrwt>
<pdfrwt beam="1">  1       -4 0.23428655E-01 0.91369721E+02</pdfrwt>
<totfact> 0.22765329E+04</totfact>
</mgrwt>
</event>
<event>
 5    1  0.1133829E+000  0.9156352E+02  0.7818608E-02  0.1299109E+00
         -4   -1    0    0    0  501 -0.00000000000E+00  0.00000000000E+00  0.27721397255E+02  0.27757742447E+02  0.14200000000E+01 0.  1.
          4   -1    0    0  501    0  0.00000000000E+00 -0.00000000000E+00 -0.75515807452E+02  0.75529157120E+02  0.14200000000E+01 0. -1.
         23    2    1    2    0    0  0.00000000000E+00  0.00000000000E+00 -0.47794410197E+02  0.10328689957E+03  0.91563518806E+02 0.  0.
        -11    1    3    3    0    0  0.19984850217E+02  0.22627230829E+02 -0.62721684359E+02  0.69608875169E+02  0.51100000000E-03 0.  1.
         11    1    3    3    0    0 -0.19984850217E+02 -0.22627230829E+02  0.14927274162E+02  0.33678024398E+02  0.51100000000E-03 0. -1.
<mgrwt>
<rscale>  0 0.91563519E+02</rscale>
<asrwt>0</asrwt>
<pdfrwt beam="2">  1        4 0.11621639E-01 0.91563519E+02</pdfrwt>
<pdfrwt beam="1">  1       -4 0.42686531E-02 0.91563519E+02</pdfrwt>
<totfact> 0.25956455E+04</totfact>
</mgrwt>
</event>
<event>
 5    1  0.1133829E+000  0.8884205E+02  0.7818608E-02  0.1305680E+00
         -4   -1    0    0    0  501 -0.00000000000E+00  0.00000000000E+00  0.11930293471E+02  0.12014503831E+02  0.14200000000E+01 0.  1.
          4   -1    0    0  501    0  0.00000000000E+00 -0.00000000000E+00 -0.16472741635E+03  0.16473353665E+03  0.14200000000E+01 0. -1.
         23    2    1    2    0    0  0.00000000000E+00  0.00000000000E+00 -0.15279712287E+03  0.17674804048E+03  0.88842045529E+02 0.  0.
        -11    1    3    3    0    0 -0.26280018219E+02  0.31968562957E+02 -0.10851462712E+03  0.11613807590E+03  0.51100000000E-03 0. -1.
         11    1    3    3    0    0  0.26280018219E+02 -0.31968562957E+02 -0.44282495752E+02  0.60609964572E+02  0.51100000000E-03 0.  1.
<mgrwt>
<rscale>  0 0.88842046E+02</rscale>
<asrwt>0</asrwt>
<pdfrwt beam="2">  1        4 0.25349626E-01 0.88842046E+02</pdfrwt>
<pdfrwt beam="1">  1       -4 0.18423784E-02 0.88842046E+02</pdfrwt>
<totfact> 0.24006308E+04</totfact>
</mgrwt>
</event>
<event>
 5    1  0.1133829E+000  0.9125157E+02  0.7818608E-02  0.1299849E+00
          4   -1    0    0  501    0  0.00000000000E+00  0.00000000000E+00  0.10593618407E+02  0.10688365214E+02  0.14200000000E+01 0. -1.
         -4   -1    0    0    0  501 -0.00000000000E+00 -0.00000000000E+00 -0.19553407494E+03  0.19553923101E+03  0.14200000000E+01 0.  1.
         23    2    1    2    0    0  0.00000000000E+00  0.00000000000E+00 -0.18494045653E+03  0.20622759622E+03  0.91251569741E+02 0.  0.
        -11    1    3    3    0    0  0.39280255298E+02  0.94521246488E+01 -0.44558922188E+02  0.60147973063E+02  0.51100000000E-03 0. -1.
         11    1    3    3    0    0 -0.39280255298E+02 -0.94521246488E+01 -0.14038153434E+03  0.14607962316E+03  0.51100000000E-03 0.  1.
<mgrwt>
<rscale>  0 0.91251570E+02</rscale>
<asrwt>0</asrwt>
<pdfrwt beam="1">  1        4 0.16374724E-02 0.91251570E+02</pdfrwt>
<pdfrwt beam="2">  1       -4 0.30089848E-01 0.91251570E+02</pdfrwt>
<totfact> 0.21082495E+04</totfact>
</mgrwt>
</event>
<event>
 5    1  0.1133829E+000  0.9185166E+02  0.7818608E-02  0.1298429E+00
          4   -1    0    0  501    0  0.00000000000E+00  0.00000000000E+00  0.69119457120E+02  0.69134041923E+02  0.14200000000E+01 0. -1.
         -4   -1    0    0    0  501 -0.00000000000E+00 -0.00000000000E+00 -0.30480687309E+02  0.30513746063E+02  0.14200000000E+01 0.  1.
         23    2    1    2    0    0  0.00000000000E+00  0.00000000000E+00  0.38638769812E+02  0.99647787986E+02  0.91851658221E+02 0.  0.
        -11    1    3    3    0    0 -0.38294556512E+02 -0.18933817418E+02  0.10296492788E+01  0.42731986595E+02  0.51100000000E-03 0.  1.
         11    1    3    3    0    0  0.38294556512E+02  0.18933817418E+02  0.37609120533E+02  0.56915801391E+02  0.51100000000E-03 0. -1.
<mgrwt>
<rscale>  0 0.91851658E+02</rscale>
<asrwt>0</asrwt>
<pdfrwt beam="1">  1        4 0.10637427E-01 0.91851658E+02</pdfrwt>
<pdfrwt beam="2">  1       -4 0.46930014E-02 0.91851658E+02</pdfrwt>
<totfact> 0.25954704E+04</totfact>
</mgrwt>
</event>
<event>
 5    1  0.1133829E+000  0.9033716E+02  0.7818608E-02  0.1302037E+00
         -4   -1    0    0    0  501 -0.00000000000E+00  0.00000000000E+00  0.96078376899E+01  0.97122059840E+01  0.14200000000E+01 0.  1.
          4   -1    0    0  501    0  0.00000000000E+00 -0.00000000000E+00 -0.21109362745E+03  0.21109840348E+03  0.14200000000E+01 0. -1.
         23    2    1    2    0    0  0.00000000000E+00  0.00000000000E+00 -0.20148578976E+03  0.22081060946E+03  0.90337156114E+02 0.  0.
        -11    1    3    3    0    0 -0.25833827567E+02  0.20201910173E+02 -0.24824170751E+02  0.41130806887E+02  0.51100000000E-03 0.  1.
         11    1    3    3    0    0  0.25833827567E+02 -0.20201910173E+02 -0.17666161901E+03  0.17967980257E+03  0.51100000000E-03 0. -1.
<mgrwt>
<rscale>  0 0.90337156E+02</rscale>
<asrwt>0</asrwt>
<pdfrwt beam="2">  1        4 0.32484335E-01 0.90337156E+02</pdfrwt>
<pdfrwt beam="1">  1       -4 0.14865247E-02 0.90337156E+02</pdfrwt>
<totfact> 0.21060604E+04</totfact>
</mgrwt>
</event>
<event>
 5    1  0.1133829E+000  0.8346333E+02  0.7818608E-02  0.1319501E+00
          4   -1    0    0  501    0  0.00000000000E+00  0.00000000000E+00  0.93291089173E+01  0.94365604534E+01  0.14200000000E+01 0.  1.
         -4   -1    0    0    0  501 -0.00000000000E+00 -0.00000000000E+00 -0.18549809221E+03  0.18550352723E+03  0.14200000000E+01 0. -1.
         23    2    1    2    0    0  0.00000000000E+00  0.00000000000E+00 -0.17616898329E+03  0.19494008768E+03  0.83463327938E+02 0.  0.
        -11    1    3    3    0    0 -0.35860356369E+02 -0.18686631801E+02 -0.63994972824E+02  0.75700144742E+02  0.51100000000E-03 0.  1.
         11    1    3    3    0    0  0.35860356369E+02  0.18686631801E+02 -0.11217401047E+03  0.11923994294E+03  0.51100000000E-03 0. -1.
<mgrwt>
<rscale>  0 0.83463328E+02</rscale>
<asrwt>0</asrwt>
<pdfrwt beam="1">  1        4 0.14439312E-02 0.83463328E+02</pdfrwt>
<pdfrwt beam="2">  1       -4 0.28546849E-01 0.83463328E+02</pdfrwt>
<totfact> 0.27320570E+04</totfact>
</mgrwt>
</event>
<event>
 5    1  0.1133829E+000  0.9113855E+02  0.7818608E-02  0.1300118E+00
         -4   -1    0    0    0  501 -0.00000000000E+00  0.00000000000E+00  0.37684117310E+02  0.37710861797E+02  0.14200000000E+01 0. -1.
          4   -1    0    0  501    0  0.00000000000E+00 -0.00000000000E+00 -0.55048902995E+02  0.55067214574E+02  0.14200000000E+01 0.  1.
         23    2    1    2    0    0  0.00000000000E+00  0.00000000000E+00 -0.17364785685E+02  0.92778076371E+02  0.91138552069E+02 0.  0.
        -11    1    3    3    0    0 -0.16308841590E+02 -0.39371073126E+02 -0.25112728668E+02  0.49464217921E+02  0.51100000000E-03 0.  1.
         11    1    3    3    0    0  0.16308841590E+02  0.39371073126E+02  0.77479429830E+01  0.43313858450E+02  0.51100000000E-03 0. -1.
<mgrwt>
<rscale>  0 0.91138552E+02</rscale>
<asrwt>0</asrwt>
<pdfrwt beam="2">  1        4 0.84725279E-02 0.91138552E+02</pdfrwt>
<pdfrwt beam="1">  1       -4 0.58010224E-02 0.91138552E+02</pdfrwt>
<totfact> 0.26944410E+04</totfact>
</mgrwt>
</event>
<event>
 5    1  0.1133829E+000  0.8865402E+02  0.7818608E-02  0.1306144E+00
          4   -1    0    0  501    0  0.00000000000E+00  0.00000000000E+00  0.63485601316E+02  0.63501480097E+02  0.14200000000E+01 0. -1.
         -4   -1    0    0    0  501 -0.00000000000E+00 -0.00000000000E+00 -0.30914018052E+02  0.30946613904E+02  0.14200000000E+01 0.  1.
         23    2    1    2    0    0  0.00000000000E+00  0.00000000000E+00  0.32571583264E+02  0.94448094001E+02  0.88654015273E+02 0.  0.
        -11    1    3    3    0    0 -0.23474225747E+02  0.27644476565E+02  0.43439359601E+02  0.56588287850E+02  0.51100000000E-03 0. -1.
         11    1    3    3    0    0  0.23474225747E+02 -0.27644476565E+02 -0.10867776337E+02  0.37859806151E+02  0.51100000000E-03 0.  1.
<mgrwt>
<rscale>  0 0.88654015E+02</rscale>
<asrwt>0</asrwt>
<pdfrwt beam="1">  1        4 0.97707443E-02 0.88654015E+02</pdfrwt>
<pdfrwt beam="2">  1       -4 0.47597316E-02 0.88654015E+02</pdfrwt>
<totfact> 0.28918684E+04</totfact>
</mgrwt>
</event>
<event>
 5    1  0.1133829E+000  0.9064652E+02  0.7818608E-02  0.1301294E+00
         -4   -1    0    0    0  501 -0.00000000000E+00  0.00000000000E+00  0.13241851361E+02  0.13317771115E+02  0.14200000000E+01 0.  1.
          4   -1    0    0  501    0  0.00000000000E+00 -0.00000000000E+00 -0.15460658087E+03  0.15461310180E+03  0.14200000000E+01 0. -1.
         23    2    1    2    0    0  0.00000000000E+00  0.00000000000E+00 -0.14136472951E+03  0.16793087291E+03  0.90646518569E+02 0.  0.
        -11    1    3    3    0    0 -0.17591102675E+02 -0.23311116134E+02 -0.13489387610E+03  0.13801888580E+03  0.51100000000E-03 0. -1.
         11    1    3    3    0    0  0.17591102675E+02  0.23311116134E+02 -0.64708534050E+01  0.29911987108E+02  0.51100000000E-03 0.  1.
<mgrwt>
<rscale>  0 0.90646519E+02</rscale>
<asrwt>0</asrwt>
<pdfrwt beam="2">  1        4 0.23791968E-01 0.90646519E+02</pdfrwt>
<pdfrwt beam="1">  1       -4 0.20435496E-02 0.90646519E+02</pdfrwt>
<totfact> 0.23163639E+04</totfact>
</mgrwt>
</event>
<event>
 5    1  0.1133829E+000  0.9272865E+02  0.7818608E-02  0.1296375E+00
         -4   -1    0    0    0  501 -0.00000000000E+00  0.00000000000E+00  0.99584367787E+01  0.10059168111E+02  0.14200000000E+01 0. -1.
          4   -1    0    0  501    0  0.00000000000E+00 -0.00000000000E+00 -0.21467290299E+03  0.21467759938E+03  0.14200000000E+01 0.  1.
         23    2    1    2    0    0  0.00000000000E+00  0.00000000000E+00 -0.20471446621E+03  0.22473676749E+03  0.92728647076E+02 0.  0.
        -11    1    3    3    0    0  0.29621024294E+01  0.41308464265E+02 -0.51838934817E+02  0.66350873648E+02  0.51100000000E-03 0. -1.
         11    1    3    3    0    0 -0.29621024294E+01 -0.41308464265E+02 -0.15287553139E+03  0.15838589385E+03  0.51100000000E-03 0.  1.
<mgrwt>
<rscale>  0 0.92728647E+02</rscale>
<asrwt>0</asrwt>
<pdfrwt beam="2">  1        4 0.33034707E-01 0.92728647E+02</pdfrwt>
<pdfrwt beam="1">  1       -4 0.15401772E-02 0.92728647E+02</pdfrwt>
<totfact> 0.19493770E+04</totfact>
</mgrwt>
</event>
<event>
 5    1  0.1133829E+000  0.9146195E+02  0.7818608E-02  0.1299350E+00
         -4   -1    0    0    0  501 -0.00000000000E+00  0.00000000000E+00  0.14187748137E+03  0.14188458732E+03  0.14200000000E+01 0.  1.
          4   -1    0    0  501    0  0.00000000000E+00 -0.00000000000E+00 -0.14698645721E+02  0.14767077776E+02  0.14200000000E+01 0. -1.
         23    2    1    2    0    0  0.00000000000E+00  0.00000000000E+00  0.12717883565E+03  0.15665166510E+03  0.91461948051E+02 0.  0.
        -11    1    3    3    0    0 -0.90362024893E+01 -0.42984068929E+02  0.41787025936E+02  0.60625396279E+02  0.51100000000E-03 0.  1.
         11    1    3    3    0    0  0.90362024893E+01  0.42984068929E+02  0.85391809711E+02  0.96026268818E+02  0.51100000000E-03 0. -1.
<mgrwt>
<rscale>  0 0.91461948E+02</rscale>
<asrwt>0</asrwt>
<pdfrwt beam="2">  1        4 0.22671409E-02 0.91461948E+02</pdfrwt>
<pdfrwt beam="1">  1       -4 0.21833114E-01 0.91461948E+02</pdfrwt>
<totfact> 0.23148074E+04</totfact>
</mgrwt>
</event>
<event>
 5    1  0.1133829E+000  0.9042736E+02  0.7818608E-02  0.1301820E+00
         -4   -1    0    0    0  501 -0.00000000000E+00  0.00000000000E+00  0.39119582140E+03  0.39119839861E+03  0.14200000000E+01 0. -1.
          4   -1    0    0  501    0  0.00000000000E+00 -0.00000000000E+00 -0.51266043653E+01  0.53196308442E+01  0.14200000000E+01 0.  1.
         23    2    1    2    0    0  0.00000000000E+00  0.00000000000E+00  0.38606921703E+03  0.39651802946E+03  0.90427359500E+02 0.  0.
        -11    1    3    3    0    0 -0.39325839249E+02  0.17114276460E+02  0.13027384425E+03  0.13715208561E+03  0.51100000000E-03 0.  1.
         11    1    3    3    0    0  0.39325839249E+02 -0.17114276460E+02  0.25579537278E+03  0.25936594385E+03  0.51100000000E-03 0. -1.
<mgrwt>
<rscale>  0 0.90427360E+02</rscale>
<asrwt>0</asrwt>
<pdfrwt beam="2">  1        4 0.80375517E-03 0.90427360E+02</pdfrwt>
<pdfrwt beam="1">  1       -4 0.60198992E-01 0.90427360E+02</pdfrwt>
<totfact> 0.15567542E+04</totfact>
</mgrwt>
</event>
<event>
 5    1  0.1133829E+000  0.1200382E+03  0.7818608E-02  0.1243034E+00
         -4   -1    0    0    0  501 -0.00000000000E+00  0.00000000000E+00  0.10997261120E+03  0.10998177855E+03  0.14200000000E+01 0. -1.
          4   -1    0    0  501    0  0.00000000000E+00 -0.00000000000E+00 -0.32730357103E+02  0.32761145830E+02  0.14200000000E+01 0.  1.
         23    2    1    2    0    0  0.00000000000E+00  0.00000000000E+00  0.77242254092E+02  0.14274292438E+03  0.12003822992E+03 0.  0.
        -11    1    3    3    0    0  0.43131919560E+02  0.41077517394E+02  0.29836790593E+02  0.66618008026E+02  0.51100000000E-03 0. -1.
         11    1    3    3    0    0 -0.43131919560E+02 -0.41077517394E+02  0.47405463499E+02  0.76124916354E+02  0.51100000000E-03 0.  1.
<mgrwt>
<rscale>  0 0.12003823E+03</rscale>
<asrwt>0</asrwt>
<pdfrwt beam="2">  1        4 0.50385131E-02 0.12003823E+03</pdfrwt>
<pdfrwt beam="1">  1       -4 0.16921937E-01 0.12003823E+03</pdfrwt>
<totfact> 0.11291224E+04</totfact>
</mgrwt>
</event>
<event>
 5    1  0.1133829E+000  0.9005052E+02  0.7818608E-02  0.1302729E+00
         -4   -1    0    0    0  501 -0.00000000000E+00  0.00000000000E+00  0.69815959406E+02  0.69830398737E+02  0.14200000000E+01 0.  1.
          4   -1    0    0  501    0  0.00000000000E+00 -0.00000000000E+00 -0.29002589232E+02  0.29037330837E+02  0.14200000000E+01 0. -1.
         23    2    1    2    0    0  0.00000000000E+00  0.00000000000E+00  0.40813370174E+02  0.98867729574E+02  0.90050523409E+02 0.  0.
        -11    1    3    3    0    0 -0.16650518311E+02 -0.41833388995E+02  0.20455742150E+02  0.49454115925E+02  0.51100000000E-03 0.  1.
         11    1    3    3    0    0  0.16650518311E+02  0.41833388995E+02  0.20357628024E+02  0.49413613649E+02  0.51100000000E-03 0. -1.
<mgrwt>
<rscale>  0 0.90050523E+02</rscale>
<asrwt>0</asrwt>
<pdfrwt beam="2">  1        4 0.44657200E-02 0.90050523E+02</pdfrwt>
<pdfrwt beam="1">  1       -4 0.10744700E-01 0.90050523E+02</pdfrwt>
<totfact> 0.27435421E+04</totfact>
</mgrwt>
</event>
<event>
 5    1  0.1133829E+000  0.9116282E+02  0.7818608E-02  0.1300060E+00
          4   -1    0    0  501    0  0.00000000000E+00  0.00000000000E+00  0.26272877421E+02  0.26311223613E+02  0.14200000000E+01 0. -1.
         -4   -1    0    0    0  501 -0.00000000000E+00 -0.00000000000E+00 -0.78977819660E+02  0.78990584238E+02  0.14200000000E+01 0.  1.
         23    2    1    2    0    0  0.00000000000E+00  0.00000000000E+00 -0.52704942238E+02  0.10530180785E+03  0.91162820274E+02 0.  0.
        -11    1    3    3    0    0 -0.31839837337E+01  0.36620921179E+02  0.47802121767E+01  0.37068585745E+02  0.51100000000E-03 0.  1.
         11    1    3    3    0    0  0.31839837337E+01 -0.36620921179E+02 -0.57485154415E+02  0.68233222105E+02  0.51100000000E-03 0. -1.
<mgrwt>
<rscale>  0 0.91162820E+02</rscale>
<asrwt>0</asrwt>
<pdfrwt beam="1">  1        4 0.40459128E-02 0.91162820E+02</pdfrwt>
<pdfrwt beam="2">  1       -4 0.12154365E-01 0.91162820E+02</pdfrwt>
<totfact> 0.26144879E+04</totfact>
</mgrwt>
</event>
<event>
 5    1  0.1133829E+000  0.9079986E+02  0.7818608E-02  0.1300926E+00
         -4   -1    0    0    0  501 -0.00000000000E+00  0.00000000000E+00  0.46534643112E+02  0.46556303650E+02  0.14200000000E+01 0.  1.
          4   -1    0    0  501    0  0.00000000000E+00 -0.00000000000E+00 -0.44249525170E+02  0.44272303733E+02  0.14200000000E+01 0. -1.
         23    2    1    2    0    0  0.00000000000E+00  0.00000000000E+00  0.22851179418E+01  0.90828607383E+02  0.90799857682E+02 0.  0.
        -11    1    3    3    0    0 -0.24291771036E+02  0.24910127364E+02 -0.28030847621E+02  0.44680342479E+02  0.51100000000E-03 0. -1.
         11    1    3    3    0    0  0.24291771036E+02 -0.24910127364E+02  0.30315965563E+02  0.46148264904E+02  0.51100000000E-03 0.  1.
<mgrwt>
<rscale>  0 0.90799858E+02</rscale>
<asrwt>0</asrwt>
<pdfrwt beam="2">  1        4 0.68110376E-02 0.90799858E+02</pdfrwt>
<pdfrwt beam="1">  1       -4 0.71625943E-02 0.90799858E+02</pdfrwt>
<totfact> 0.27344291E+04</totfact>
</mgrwt>
</event>
<event>
 5    1  0.1133829E+000  0.9444674E+02  0.7818608E-02  0.1292427E+00
          4   -1    0    0  501    0  0.00000000000E+00  0.00000000000E+00  0.26005726623E+03  0.26006114304E+03  0.14200000000E+01 0. -1.
         -4   -1    0    0    0  501 -0.00000000000E+00 -0.00000000000E+00 -0.85124591095E+01  0.86300845935E+01  0.14200000000E+01 0.  1.
         23    2    1    2    0    0  0.00000000000E+00  0.00000000000E+00  0.25154480712E+03  0.26869122763E+03  0.94446735347E+02 0.  0.
        -11    1    3    3    0    0  0.32650358638E+02 -0.32438010720E+02  0.95694967643E+02  0.10618755714E+03  0.51100000000E-03 0.  1.
         11    1    3    3    0    0 -0.32650358638E+02  0.32438010720E+02  0.15584983948E+03  0.16250367050E+03  0.51100000000E-03 0. -1.
<mgrwt>
<rscale>  0 0.94446735E+02</rscale>
<asrwt>0</asrwt>
<pdfrwt beam="1">  1        4 0.40018150E-01 0.94446735E+02</pdfrwt>
<pdfrwt beam="2">  1       -4 0.13189556E-02 0.94446735E+02</pdfrwt>
<totfact> 0.17128345E+04</totfact>
</mgrwt>
</event>
<event>
 5    1  0.1133829E+000  0.9106533E+02  0.7818608E-02  0.1300292E+00
          4   -1    0    0  501    0  0.00000000000E+00  0.00000000000E+00  0.27269171911E+02  0.27306119034E+02  0.14200000000E+01 0. -1.
         -4   -1    0    0    0  501 -0.00000000000E+00 -0.00000000000E+00 -0.75933050736E+02  0.75946327061E+02  0.14200000000E+01 0.  1.
         23    2    1    2    0    0  0.00000000000E+00  0.00000000000E+00 -0.48663878825E+02  0.10325244610E+03  0.91065331067E+02 0.  0.
        -11    1    3    3    0    0  0.12356441004E+02  0.35051322516E+02  0.54932785696E+01  0.37569308672E+02  0.51100000000E-03 0. -1.
         11    1    3    3    0    0 -0.12356441004E+02 -0.35051322516E+02 -0.54157157395E+02  0.65683137423E+02  0.51100000000E-03 0.  1.
<mgrwt>
<rscale>  0 0.91065331E+02</rscale>
<asrwt>0</asrwt>
<pdfrwt beam="1">  1        4 0.41991206E-02 0.91065331E+02</pdfrwt>
<pdfrwt beam="2">  1       -4 0.11685871E-01 0.91065331E+02</pdfrwt>
<totfact> 0.26345872E+04</totfact>
</mgrwt>
</event>
<event>
 5    1  0.1133829E+000  0.9206429E+02  0.7818608E-02  0.1297928E+00
         -4   -1    0    0    0  501 -0.00000000000E+00  0.00000000000E+00  0.83825125795E+01  0.85019360821E+01  0.14200000000E+01 0. -1.
          4   -1    0    0  501    0  0.00000000000E+00 -0.00000000000E+00 -0.25087381360E+03  0.25087783232E+03  0.14200000000E+01 0.  1.
         23    2    1    2    0    0  0.00000000000E+00  0.00000000000E+00 -0.24249130102E+03  0.25937976840E+03  0.92064288333E+02 0.  0.
        -11    1    3    3    0    0 -0.30452672476E+02  0.21758786650E+02 -0.45744781965E+02  0.59104950171E+02  0.51100000000E-03 0. -1.
         11    1    3    3    0    0  0.30452672476E+02 -0.21758786650E+02 -0.19674651905E+03  0.20027481823E+03  0.51100000000E-03 0.  1.
<mgrwt>
<rscale>  0 0.92064288E+02</rscale>
<asrwt>0</asrwt>
<pdfrwt beam="2">  1        4 0.38605461E-01 0.92064288E+02</pdfrwt>
<pdfrwt beam="1">  1       -4 0.12991131E-02 0.92064288E+02</pdfrwt>
<totfact> 0.18647478E+04</totfact>
</mgrwt>
</event>
<event>
 5    1  0.1133829E+000  0.9837354E+02  0.7818608E-02  0.1283754E+00
          4   -1    0    0  501    0  0.00000000000E+00  0.00000000000E+00  0.47327383222E+02  0.47348681108E+02  0.14200000000E+01 0. -1.
         -4   -1    0    0    0  501 -0.00000000000E+00 -0.00000000000E+00 -0.51076544662E+02  0.51096279851E+02  0.14200000000E+01 0.  1.
         23    2    1    2    0    0  0.00000000000E+00  0.00000000000E+00 -0.37491614399E+01  0.98444960959E+02  0.98373543835E+02 0.  0.
        -11    1    3    3    0    0  0.39636548095E+02 -0.69372071536E+01  0.26433014738E+02  0.48144418745E+02  0.51100000000E-03 0. -1.
         11    1    3    3    0    0 -0.39636548095E+02  0.69372071536E+01 -0.30182176177E+02  0.50300542214E+02  0.51100000000E-03 0.  1.
<mgrwt>
<rscale>  0 0.98373544E+02</rscale>
<asrwt>0</asrwt>
<pdfrwt beam="1">  1        4 0.72842923E-02 0.98373544E+02</pdfrwt>
<pdfrwt beam="2">  1       -4 0.78610864E-02 0.98373544E+02</pdfrwt>
<totfact> 0.21582025E+04</totfact>
</mgrwt>
</event>
<event>
 5    1  0.1133829E+000  0.9003118E+02  0.7818608E-02  0.1302776E+00
          4   -1    0    0  501    0  0.00000000000E+00  0.00000000000E+00  0.53661653895E+02  0.53680438697E+02  0.14200000000E+01 0. -1.
         -4   -1    0    0    0  501 -0.00000000000E+00 -0.00000000000E+00 -0.37723840762E+02  0.37750557107E+02  0.14200000000E+01 0.  1.
         23    2    1    2    0    0  0.00000000000E+00  0.00000000000E+00  0.15937813132E+02  0.91430995804E+02  0.90031178523E+02 0.  0.
        -11    1    3    3    0    0  0.27048558502E+02 -0.14682718695E+02  0.41330807237E+02  0.51530984586E+02  0.51100000000E-03 0. -1.
         11    1    3    3    0    0 -0.27048558502E+02  0.14682718695E+02 -0.25392994105E+02  0.39900011218E+02  0.51100000000E-03 0.  1.
<mgrwt>
<rscale>  0 0.90031179E+02</rscale>
<asrwt>0</asrwt>
<pdfrwt beam="1">  1        4 0.82591391E-02 0.90031179E+02</pdfrwt>
<pdfrwt beam="2">  1       -4 0.58071679E-02 0.90031179E+02</pdfrwt>
<totfact> 0.27940544E+04</totfact>
</mgrwt>
</event>
<event>
 5    1  0.1133829E+000  0.9045488E+02  0.7818608E-02  0.1301754E+00
          4   -1    0    0  501    0  0.00000000000E+00  0.00000000000E+00  0.16646193603E+02  0.16706650217E+02  0.14200000000E+01 0.  1.
         -4   -1    0    0    0  501 -0.00000000000E+00 -0.00000000000E+00 -0.12259491242E+03  0.12260313597E+03  0.14200000000E+01 0. -1.
         23    2    1    2    0    0  0.00000000000E+00  0.00000000000E+00 -0.10594871881E+03  0.13930978619E+03  0.90454881074E+02 0.  0.
        -11    1    3    3    0    0 -0.16783093099E+02 -0.36200797610E+02 -0.20182419698E+02  0.44715769330E+02  0.51100000000E-03 0.  1.
         11    1    3    3    0    0  0.16783093099E+02  0.36200797610E+02 -0.85766299116E+02  0.94594016861E+02  0.51100000000E-03 0. -1.
<mgrwt>
<rscale>  0 0.90454881E+02</rscale>
<asrwt>0</asrwt>
<pdfrwt beam="1">  1        4 0.25662360E-02 0.90454881E+02</pdfrwt>
<pdfrwt beam="2">  1       -4 0.18866038E-01 0.90454881E+02</pdfrwt>
<totfact> 0.24744804E+04</totfact>
</mgrwt>
</event>
<event>
 5    1  0.1133829E+000  0.8730526E+02  0.7818608E-02  0.1309512E+00
          4   -1    0    0  501    0  0.00000000000E+00  0.00000000000E+00  0.53653288545E+02  0.53672076275E+02  0.14200000000E+01 0. -1.
         -4   -1    0    0    0  501 -0.00000000000E+00 -0.00000000000E+00 -0.35476822074E+02  0.35505229255E+02  0.14200000000E+01 0.  1.
         23    2    1    2    0    0  0.00000000000E+00  0.00000000000E+00  0.18176466471E+02  0.89177305530E+02  0.87305256934E+02 0.  0.
        -11    1    3    3    0    0 -0.13855390952E+02  0.37825454366E+02  0.26265942972E+02  0.48089880608E+02  0.51100000000E-03 0. -1.
         11    1    3    3    0    0  0.13855390952E+02 -0.37825454366E+02 -0.80894765011E+01  0.41087424922E+02  0.51100000000E-03 0.  1.
<mgrwt>
<rscale>  0 0.87305257E+02</rscale>
<asrwt>0</asrwt>
<pdfrwt beam="1">  1        4 0.82579824E-02 0.87305257E+02</pdfrwt>
<pdfrwt beam="2">  1       -4 0.54616030E-02 0.87305257E+02</pdfrwt>
<totfact> 0.30523278E+04</totfact>
</mgrwt>
</event>
<event>
 5    1  0.1133829E+000  0.9107526E+02  0.7818608E-02  0.1300268E+00
          4   -1    0    0  501    0  0.00000000000E+00  0.00000000000E+00  0.92910904224E+01  0.93989766058E+01  0.14200000000E+01 0. -1.
         -4   -1    0    0    0  501 -0.00000000000E+00 -0.00000000000E+00 -0.22179120271E+03  0.22179574838E+03  0.14200000000E+01 0.  1.
         23    2    1    2    0    0  0.00000000000E+00  0.00000000000E+00 -0.21250011229E+03  0.23119472498E+03  0.91075260851E+02 0.  0.
        -11    1    3    3    0    0 -0.41756518845E+02  0.82262938363E+01 -0.65129693458E+02  0.77802029193E+02  0.51100000000E-03 0. -1.
         11    1    3    3    0    0  0.41756518845E+02 -0.82262938363E+01 -0.14737041883E+03  0.15339269579E+03  0.51100000000E-03 0.  1.
<mgrwt>
<rscale>  0 0.91075261E+02</rscale>
<asrwt>0</asrwt>
<pdfrwt beam="1">  1        4 0.14380473E-02 0.91075261E+02</pdfrwt>
<pdfrwt beam="2">  1       -4 0.34130368E-01 0.91075261E+02</pdfrwt>
<totfact> 0.20210229E+04</totfact>
</mgrwt>
</event>
<event>
 5    1  0.1133829E+000  0.9049211E+02  0.7818608E-02  0.1301664E+00
          4   -1    0    0  501    0  0.00000000000E+00  0.00000000000E+00  0.26336427450E+02  0.26374681246E+02  0.14200000000E+01 0. -1.
         -4   -1    0    0    0  501 -0.00000000000E+00 -0.00000000000E+00 -0.77631689150E+02  0.77644675029E+02  0.14200000000E+01 0.  1.
         23    2    1    2    0    0  0.00000000000E+00  0.00000000000E+00 -0.51295261700E+02  0.10401935627E+03  0.90492113507E+02 0.  0.
        -11    1    3    3    0    0  0.32869398794E+02 -0.30918545001E+02 -0.29434282105E+02  0.53876996625E+02  0.51100000000E-03 0.  1.
         11    1    3    3    0    0 -0.32869398794E+02  0.30918545001E+02 -0.21860979595E+02  0.50142359649E+02  0.51100000000E-03 0. -1.
<mgrwt>
<rscale>  0 0.90492114E+02</rscale>
<asrwt>0</asrwt>
<pdfrwt beam="1">  1        4 0.40556996E-02 0.90492114E+02</pdfrwt>
<pdfrwt beam="2">  1       -4 0.11947278E-01 0.90492114E+02</pdfrwt>
<totfact> 0.26751365E+04</totfact>
</mgrwt>
</event>
<event>
 5    1  0.1133829E+000  0.9395640E+02  0.7818608E-02  0.1293544E+00
         -4   -1    0    0    0  501 -0.00000000000E+00  0.00000000000E+00  0.16807813187E+02  0.16867690539E+02  0.14200000000E+01 0.  1.
          4   -1    0    0  501    0  0.00000000000E+00 -0.00000000000E+00 -0.13100788904E+03  0.13101558454E+03  0.14200000000E+01 0. -1.
         23    2    1    2    0    0  0.00000000000E+00  0.00000000000E+00 -0.11420007586E+03  0.14788327508E+03  0.93956403302E+02 0.  0.
        -11    1    3    3    0    0 -0.29767489068E+02  0.27098610395E+02 -0.18981904703E+02  0.44505626578E+02  0.51100000000E-03 0.  1.
         11    1    3    3    0    0  0.29767489068E+02 -0.27098610395E+02 -0.95218171155E+02  0.10337764850E+03  0.51100000000E-03 0. -1.
<mgrwt>
<rscale>  0 0.93956403E+02</rscale>
<asrwt>0</asrwt>
<pdfrwt beam="2">  1        4 0.20160257E-01 0.93956403E+02</pdfrwt>
<pdfrwt beam="1">  1       -4 0.25910154E-02 0.93956403E+02</pdfrwt>
<totfact> 0.21926697E+04</totfact>
</mgrwt>
</event>
<event>
 5    1  0.1133829E+000  0.9269121E+02  0.7818608E-02  0.1296462E+00
         -4   -1    0    0    0  501 -0.00000000000E+00  0.00000000000E+00  0.37427372692E+02  0.37454300510E+02  0.14200000000E+01 0.  1.
          4   -1    0    0  501    0  0.00000000000E+00 -0.00000000000E+00 -0.57332525721E+02  0.57350108156E+02  0.14200000000E+01 0. -1.
         23    2    1    2    0    0  0.00000000000E+00  0.00000000000E+00 -0.19905153028E+02  0.94804408666E+02  0.92691212018E+02 0.  0.
        -11    1    3    3    0    0 -0.40561027396E+02  0.19790398355E+02  0.82610527566E+00  0.45139110100E+02  0.51100000000E-03 0.  1.
         11    1    3    3    0    0  0.40561027396E+02 -0.19790398355E+02 -0.20731258304E+02  0.49665298566E+02  0.51100000000E-03 0. -1.
<mgrwt>
<rscale>  0 0.92691212E+02</rscale>
<asrwt>0</asrwt>
<pdfrwt beam="2">  1        4 0.88238124E-02 0.92691212E+02</pdfrwt>
<pdfrwt beam="1">  1       -4 0.57614812E-02 0.92691212E+02</pdfrwt>
<totfact> 0.25610588E+04</totfact>
</mgrwt>
</event>
<event>
 5    1  0.1133829E+000  0.8801639E+02  0.7818608E-02  0.1307728E+00
          4   -1    0    0  501    0  0.00000000000E+00  0.00000000000E+00  0.21130070839E+03  0.21130547974E+03  0.14200000000E+01 0. -1.
         -4   -1    0    0    0  501 -0.00000000000E+00 -0.00000000000E+00 -0.91058085224E+01  0.92158639772E+01  0.14200000000E+01 0.  1.
         23    2    1    2    0    0  0.00000000000E+00  0.00000000000E+00  0.20219489987E+03  0.22052134371E+03  0.88016393361E+02 0.  0.
        -11    1    3    3    0    0  0.23685063315E+02 -0.37056701403E+02  0.97104382640E+02  0.10659944874E+03  0.51100000000E-03 0.  1.
         11    1    3    3    0    0 -0.23685063315E+02  0.37056701403E+02  0.10509051723E+03  0.11392189498E+03  0.51100000000E-03 0. -1.
<mgrwt>
<rscale>  0 0.88016393E+02</rscale>
<asrwt>0</asrwt>
<pdfrwt beam="1">  1        4 0.32516634E-01 0.88016393E+02</pdfrwt>
<pdfrwt beam="2">  1       -4 0.14097264E-02 0.88016393E+02</pdfrwt>
<totfact> 0.22582440E+04</totfact>
</mgrwt>
</event>
<event>
 5    1  0.1133829E+000  0.7929519E+02  0.7818608E-02  0.1331064E+00
          4   -1    0    0  501    0  0.00000000000E+00  0.00000000000E+00  0.25376622762E+02  0.25416321189E+02  0.14200000000E+01 0. -1.
         -4   -1    0    0    0  501 -0.00000000000E+00 -0.00000000000E+00 -0.61847815754E+02  0.61864114910E+02  0.14200000000E+01 0.  1.
         23    2    1    2    0    0  0.00000000000E+00  0.00000000000E+00 -0.36471192992E+02  0.87280436099E+02  0.79295186533E+02 0.  0.
        -11    1    3    3    0    0 -0.34244322459E+02 -0.44597781496E+01  0.32032129667E+01  0.34681750466E+02  0.51100000000E-03 0. -1.
         11    1    3    3    0    0  0.34244322459E+02  0.44597781496E+01 -0.39674405959E+02  0.52598685633E+02  0.51100000000E-03 0.  1.
<mgrwt>
<rscale>  0 0.79295187E+02</rscale>
<asrwt>0</asrwt>
<pdfrwt beam="1">  1        4 0.39084033E-02 0.79295187E+02</pdfrwt>
<pdfrwt beam="2">  1       -4 0.95193561E-02 0.79295187E+02</pdfrwt>
<totfact> 0.39682796E+04</totfact>
</mgrwt>
</event>
<event>
 5    1  0.1133829E+000  0.9169550E+02  0.7818608E-02  0.1298797E+00
          4   -1    0    0  501    0  0.00000000000E+00  0.00000000000E+00  0.45167882189E+01  0.47347413672E+01  0.14200000000E+01 0. -1.
         -4   -1    0    0    0  501 -0.00000000000E+00 -0.00000000000E+00 -0.45419574180E+03  0.45419796154E+03  0.14200000000E+01 0.  1.
         23    2    1    2    0    0  0.00000000000E+00  0.00000000000E+00 -0.44967895358E+03  0.45893270291E+03  0.91695498832E+02 0.  0.
        -11    1    3    3    0    0  0.43996653902E+02  0.12417192416E+02 -0.24226646095E+03  0.24654194435E+03  0.51100000000E-03 0. -1.
         11    1    3    3    0    0 -0.43996653902E+02 -0.12417192416E+02 -0.20741249262E+03  0.21239075855E+03  0.51100000000E-03 0.  1.
<mgrwt>
<rscale>  0 0.91695499E+02</rscale>
<asrwt>0</asrwt>
<pdfrwt beam="1">  1        4 0.71182723E-03 0.91695499E+02</pdfrwt>
<pdfrwt beam="2">  1       -4 0.69893169E-01 0.91695499E+02</pdfrwt>
<totfact> 0.13659637E+04</totfact>
</mgrwt>
</event>
<event>
 5    1  0.1133829E+000  0.9153926E+02  0.7818608E-02  0.1299166E+00
          4   -1    0    0  501    0  0.00000000000E+00  0.00000000000E+00  0.34908988636E+02  0.34937857513E+02  0.14200000000E+01 0. -1.
         -4   -1    0    0    0  501 -0.00000000000E+00 -0.00000000000E+00 -0.59947075627E+02  0.59963891437E+02  0.14200000000E+01 0.  1.
         23    2    1    2    0    0  0.00000000000E+00  0.00000000000E+00 -0.25038086991E+02  0.94901748950E+02  0.91539260176E+02 0.  0.
        -11    1    3    3    0    0 -0.37422384313E+02 -0.12183042726E+02 -0.36743955540E+02  0.53842173496E+02  0.51100000000E-03 0.  1.
         11    1    3    3    0    0  0.37422384313E+02  0.12183042726E+02  0.11705868550E+02  0.41059575454E+02  0.51100000000E-03 0. -1.
<mgrwt>
<rscale>  0 0.91539260E+02</rscale>
<asrwt>0</asrwt>
<pdfrwt beam="1">  1        4 0.53741279E-02 0.91539260E+02</pdfrwt>
<pdfrwt beam="2">  1       -4 0.92261412E-02 0.91539260E+02</pdfrwt>
<totfact> 0.26490857E+04</totfact>
</mgrwt>
</event>
<event>
 5    1  0.1133829E+000  0.7849095E+02  0.7818608E-02  0.1333389E+00
         -4   -1    0    0    0  501 -0.00000000000E+00  0.00000000000E+00  0.59825561894E+02  0.59842411849E+02  0.14200000000E+01 0.  1.
          4   -1    0    0  501    0  0.00000000000E+00 -0.00000000000E+00 -0.25704895429E+02  0.25744087652E+02  0.14200000000E+01 0. -1.
         23    2    1    2    0    0  0.00000000000E+00  0.00000000000E+00  0.34120666465E+02  0.85586499501E+02  0.78490948630E+02 0.  0.
        -11    1    3    3    0    0  0.26902365514E+01  0.39015775400E+02  0.13487023483E+02  0.41368682665E+02  0.51100000000E-03 0.  1.
         11    1    3    3    0    0 -0.26902365514E+01 -0.39015775400E+02  0.20633642982E+02  0.44217816836E+02  0.51100000000E-03 0. -1.
<mgrwt>
<rscale>  0 0.78490949E+02</rscale>
<asrwt>0</asrwt>
<pdfrwt beam="2">  1        4 0.39589102E-02 0.78490949E+02</pdfrwt>
<pdfrwt beam="1">  1       -4 0.92082435E-02 0.78490949E+02</pdfrwt>
<totfact> 0.40946803E+04</totfact>
</mgrwt>
</event>
<event>
 5    1  0.1133829E+000  0.9260503E+02  0.7818608E-02  0.1296663E+00
          4   -1    0    0  501    0  0.00000000000E+00  0.00000000000E+00  0.26393010024E+02  0.26431181928E+02  0.14200000000E+01 0.  1.
         -4   -1    0    0    0  501 -0.00000000000E+00 -0.00000000000E+00 -0.81127623666E+02  0.81140050047E+02  0.14200000000E+01 0. -1.
         23    2    1    2    0    0  0.00000000000E+00  0.00000000000E+00 -0.54734613642E+02  0.10757123198E+03  0.92605032359E+02 0.  0.
        -11    1    3    3    0    0 -0.35490644956E+00 -0.41804288760E+02 -0.50488910937E+02  0.65550397750E+02  0.51100000000E-03 0. -1.
         11    1    3    3    0    0  0.35490644956E+00  0.41804288760E+02 -0.42457027052E+01  0.42020834226E+02  0.51100000000E-03 0.  1.
<mgrwt>
<rscale>  0 0.92605032E+02</rscale>
<asrwt>0</asrwt>
<pdfrwt beam="1">  1        4 0.40643553E-02 0.92605032E+02</pdfrwt>
<pdfrwt beam="2">  1       -4 0.12485065E-01 0.92605032E+02</pdfrwt>
<totfact> 0.24923389E+04</totfact>
</mgrwt>
</event>
<event>
 5    1  0.1133829E+000  0.9112146E+02  0.7818608E-02  0.1300158E+00
          4   -1    0    0  501    0  0.00000000000E+00  0.00000000000E+00  0.53677184795E+01  0.55523690146E+01  0.14200000000E+01 0. -1.
         -4   -1    0    0    0  501 -0.00000000000E+00 -0.00000000000E+00 -0.37999044499E+03  0.37999309821E+03  0.14200000000E+01 0.  1.
         23    2    1    2    0    0  0.00000000000E+00  0.00000000000E+00 -0.37462272651E+03  0.38554546722E+03  0.91121457823E+02 0.  0.
        -11    1    3    3    0    0 -0.35257274350E+02 -0.25125278918E+02 -0.24736116952E+03  0.25112129185E+03  0.51100000000E-03 0.  1.
         11    1    3    3    0    0  0.35257274350E+02  0.25125278918E+02 -0.12726155699E+03  0.13442417537E+03  0.51100000000E-03 0. -1.
<mgrwt>
<rscale>  0 0.91121458E+02</rscale>
<asrwt>0</asrwt>
<pdfrwt beam="1">  1        4 0.84021112E-03 0.91121458E+02</pdfrwt>
<pdfrwt beam="2">  1       -4 0.58474456E-01 0.91121458E+02</pdfrwt>
<totfact> 0.15519162E+04</totfact>
</mgrwt>
</event>
<event>
 5    1  0.1133829E+000  0.9065797E+02  0.7818608E-02  0.1301266E+00
          4   -1    0    0  501    0  0.00000000000E+00  0.00000000000E+00  0.15735532445E+03  0.15736173148E+03  0.14200000000E+01 0. -1.
         -4   -1    0    0    0  501 -0.00000000000E+00 -0.00000000000E+00 -0.13012517443E+02  0.13089767385E+02  0.14200000000E+01 0.  1.
         23    2    1    2    0    0  0.00000000000E+00  0.00000000000E+00  0.14434280701E+03  0.17045149886E+03  0.90657970026E+02 0.  0.
        -11    1    3    3    0    0 -0.17072396964E+02 -0.41960861067E+02  0.69177114983E+02  0.82690107251E+02  0.51100000000E-03 0. -1.
         11    1    3    3    0    0  0.17072396964E+02  0.41960861067E+02  0.75165692027E+02  0.87761391612E+02  0.51100000000E-03 0.  1.
<mgrwt>
<rscale>  0 0.90657970E+02</rscale>
<asrwt>0</asrwt>
<pdfrwt beam="1">  1        4 0.24214946E-01 0.90657970E+02</pdfrwt>
<pdfrwt beam="2">  1       -4 0.20083610E-02 0.90657970E+02</pdfrwt>
<totfact> 0.23036457E+04</totfact>
</mgrwt>
</event>
<event>
 5    1  0.1133829E+000  0.9160608E+02  0.7818608E-02  0.1299008E+00
          4   -1    0    0  501    0  0.00000000000E+00  0.00000000000E+00  0.29608188763E+02  0.29642220596E+02  0.14200000000E+01 0. -1.
         -4   -1    0    0    0  501 -0.00000000000E+00 -0.00000000000E+00 -0.70774162359E+02  0.70788406237E+02  0.14200000000E+01 0.  1.
         23    2    1    2    0    0  0.00000000000E+00  0.00000000000E+00 -0.41165973596E+02  0.10043062683E+03  0.91606077440E+02 0.  0.
        -11    1    3    3    0    0 -0.12062831267E+02 -0.26698162501E+02 -0.59182801820E+02  0.66037169917E+02  0.51100000000E-03 0.  1.
         11    1    3    3    0    0  0.12062831267E+02  0.26698162501E+02  0.18016828225E+02  0.34393456916E+02  0.51100000000E-03 0. -1.
<mgrwt>
<rscale>  0 0.91606077E+02</rscale>
<asrwt>0</asrwt>
<pdfrwt beam="1">  1        4 0.45588195E-02 0.91606077E+02</pdfrwt>
<pdfrwt beam="2">  1       -4 0.10892046E-01 0.91606077E+02</pdfrwt>
<totfact> 0.26096487E+04</totfact>
</mgrwt>
</event>
<event>
 5    1  0.1133829E+000  0.9239066E+02  0.7818608E-02  0.1297163E+00
         -4   -1    0    0    0  501 -0.00000000000E+00  0.00000000000E+00  0.12827874153E+02  0.12906229321E+02  0.14200000000E+01 0. -1.
          4   -1    0    0  501    0  0.00000000000E+00 -0.00000000000E+00 -0.16576921683E+03  0.16577529866E+03  0.14200000000E+01 0.  1.
         23    2    1    2    0    0  0.00000000000E+00  0.00000000000E+00 -0.15294134267E+03  0.17868152798E+03  0.92390660481E+02 0.  0.
        -11    1    3    3    0    0 -0.41856477737E+02  0.13605337750E+02 -0.49330224091E+02  0.66110066957E+02  0.51100000000E-03 0. -1.
         11    1    3    3    0    0  0.41856477737E+02 -0.13605337750E+02 -0.10361111858E+03  0.11257146103E+03  0.51100000000E-03 0.  1.
<mgrwt>
<rscale>  0 0.92390660E+02</rscale>
<asrwt>0</asrwt>
<pdfrwt beam="2">  1        4 0.25509450E-01 0.92390660E+02</pdfrwt>
<pdfrwt beam="1">  1       -4 0.19800144E-02 0.92390660E+02</pdfrwt>
<totfact> 0.21530918E+04</totfact>
</mgrwt>
</event>
<event>
 5    1  0.1133829E+000  0.8946319E+02  0.7818608E-02  0.1304157E+00
         -4   -1    0    0    0  501 -0.00000000000E+00  0.00000000000E+00  0.54701888220E+02  0.54720315924E+02  0.14200000000E+01 0. -1.
          4   -1    0    0  501    0  0.00000000000E+00 -0.00000000000E+00 -0.36540169970E+02  0.36567751113E+02  0.14200000000E+01 0.  1.
         23    2    1    2    0    0  0.00000000000E+00  0.00000000000E+00  0.18161718249E+02  0.91288067037E+02  0.89463194519E+02 0.  0.
        -11    1    3    3    0    0 -0.28074840648E+02 -0.31140212534E+02 -0.68257773996E+01  0.42479415620E+02  0.51100000000E-03 0.  1.
         11    1    3    3    0    0  0.28074840648E+02  0.31140212534E+02  0.24987495649E+02  0.48808651417E+02  0.51100000000E-03 0. -1.
<mgrwt>
<rscale>  0 0.89463195E+02</rscale>
<asrwt>0</asrwt>
<pdfrwt beam="2">  1        4 0.56251038E-02 0.89463195E+02</pdfrwt>
<pdfrwt beam="1">  1       -4 0.84192142E-02 0.89463195E+02</pdfrwt>
<totfact> 0.28432302E+04</totfact>
</mgrwt>
</event>
<event>
 5    1  0.1133829E+000  0.9138666E+02  0.7818608E-02  0.1299528E+00
         -4   -1    0    0    0  501 -0.00000000000E+00  0.00000000000E+00  0.75366080422E+02  0.75379456606E+02  0.14200000000E+01 0. -1.
          4   -1    0    0  501    0  0.00000000000E+00 -0.00000000000E+00 -0.27669139799E+02  0.27705553545E+02  0.14200000000E+01 0.  1.
         23    2    1    2    0    0  0.00000000000E+00  0.00000000000E+00  0.47696940623E+02  0.10308501015E+03  0.91386657522E+02 0.  0.
        -11    1    3    3    0    0  0.30682667754E+02 -0.33546894763E+02  0.29025043566E+02  0.53937680735E+02  0.51100000000E-03 0.  1.
         11    1    3    3    0    0 -0.30682667754E+02  0.33546894763E+02  0.18671897057E+02  0.49147329416E+02  0.51100000000E-03 0. -1.
<mgrwt>
<rscale>  0 0.91386658E+02</rscale>
<asrwt>0</asrwt>
<pdfrwt beam="2">  1        4 0.42606208E-02 0.91386658E+02</pdfrwt>
<pdfrwt beam="1">  1       -4 0.11598611E-01 0.91386658E+02</pdfrwt>
<totfact> 0.26105327E+04</totfact>
</mgrwt>
</event>
<event>
 5    1  0.1133829E+000  0.9073684E+02  0.7818608E-02  0.1301077E+00
          4   -1    0    0  501    0  0.00000000000E+00  0.00000000000E+00  0.13474123317E+03  0.13474871545E+03  0.14200000000E+01 0. -1.
         -4   -1    0    0    0  501 -0.00000000000E+00 -0.00000000000E+00 -0.15234974971E+02  0.15301008541E+02  0.14200000000E+01 0.  1.
         23    2    1    2    0    0  0.00000000000E+00  0.00000000000E+00  0.11950625820E+03  0.15004972400E+03  0.90736838837E+02 0.  0.
        -11    1    3    3    0    0 -0.27496087029E+02 -0.15274717845E+02  0.56865912668E+01  0.31963872225E+02  0.51100000000E-03 0.  1.
         11    1    3    3    0    0  0.27496087029E+02  0.15274717845E+02  0.11381966693E+03  0.11808585177E+03  0.51100000000E-03 0. -1.
<mgrwt>
<rscale>  0 0.90736839E+02</rscale>
<asrwt>0</asrwt>
<pdfrwt beam="1">  1        4 0.20735076E-01 0.90736839E+02</pdfrwt>
<pdfrwt beam="2">  1       -4 0.23494973E-02 0.90736839E+02</pdfrwt>
<totfact> 0.23980421E+04</totfact>
</mgrwt>
</event>
<event>
 5    1  0.1133829E+000  0.9226419E+02  0.7818608E-02  0.1297459E+00
          4   -1    0    0  501    0  0.00000000000E+00  0.00000000000E+00  0.23212527017E+02  0.23255919903E+02  0.14200000000E+01 0. -1.
         -4   -1    0    0    0  501 -0.00000000000E+00 -0.00000000000E+00 -0.91547452785E+02  0.91558464991E+02  0.14200000000E+01 0.  1.
         23    2    1    2    0    0  0.00000000000E+00  0.00000000000E+00 -0.68334925768E+02  0.11481438489E+03  0.92264190772E+02 0.  0.
        -11    1    3    3    0    0 -0.45356429399E+01  0.44815483234E+02 -0.21775084580E+02  0.50031529090E+02  0.51100000000E-03 0. -1.
         11    1    3    3    0    0  0.45356429399E+01 -0.44815483234E+02 -0.46559841188E+02  0.64782855804E+02  0.51100000000E-03 0.  1.
<mgrwt>
<rscale>  0 0.92264191E+02</rscale>
<asrwt>0</asrwt>
<pdfrwt beam="1">  1        4 0.35753430E-02 0.92264191E+02</pdfrwt>
<pdfrwt beam="2">  1       -4 0.14088408E-01 0.92264191E+02</pdfrwt>
<totfact> 0.24761438E+04</totfact>
</mgrwt>
</event>
<event>
 5    1  0.1133829E+000  0.9273275E+02  0.7818608E-02  0.1296366E+00
         -4   -1    0    0    0  501 -0.00000000000E+00  0.00000000000E+00  0.48126015321E+02  0.48146959932E+02  0.14200000000E+01 0.  1.
          4   -1    0    0  501    0  0.00000000000E+00 -0.00000000000E+00 -0.44629118094E+02  0.44651703011E+02  0.14200000000E+01 0. -1.
         23    2    1    2    0    0  0.00000000000E+00  0.00000000000E+00  0.34968972275E+01  0.92798662943E+02  0.92732753404E+02 0.  0.
        -11    1    3    3    0    0 -0.23328571083E+02 -0.46824189149E+01 -0.38075484190E+02  0.44898661141E+02  0.51100000000E-03 0. -1.
         11    1    3    3    0    0  0.23328571083E+02  0.46824189149E+01  0.41572381418E+02  0.47900001802E+02  0.51100000000E-03 0.  1.
<mgrwt>
<rscale>  0 0.92732753E+02</rscale>
<asrwt>0</asrwt>
<pdfrwt beam="2">  1        4 0.68693666E-02 0.92732753E+02</pdfrwt>
<pdfrwt beam="1">  1       -4 0.74073508E-02 0.92732753E+02</pdfrwt>
<totfact> 0.25700441E+04</totfact>
</mgrwt>
</event>
<event>
 5    1  0.1133829E+000  0.9139447E+02  0.7818608E-02  0.1299509E+00
          4   -1    0    0  501    0  0.00000000000E+00  0.00000000000E+00  0.98089111494E+01  0.99111622899E+01  0.14200000000E+01 0. -1.
         -4   -1    0    0    0  501 -0.00000000000E+00 -0.00000000000E+00 -0.21168333721E+03  0.21168809993E+03  0.14200000000E+01 0.  1.
         23    2    1    2    0    0  0.00000000000E+00  0.00000000000E+00 -0.20187442606E+03  0.22159926222E+03  0.91394469852E+02 0.  0.
        -11    1    3    3    0    0  0.30563315244E+02 -0.21672273460E+02 -0.37504387888E+02  0.53013043553E+02  0.51100000000E-03 0. -1.
         11    1    3    3    0    0 -0.30563315244E+02  0.21672273460E+02 -0.16437003817E+03  0.16858621867E+03  0.51100000000E-03 0.  1.
<mgrwt>
<rscale>  0 0.91394470E+02</rscale>
<asrwt>0</asrwt>
<pdfrwt beam="1">  1        4 0.15172952E-02 0.91394470E+02</pdfrwt>
<pdfrwt beam="2">  1       -4 0.32574896E-01 0.91394470E+02</pdfrwt>
<totfact> 0.20386051E+04</totfact>
</mgrwt>
</event>
<event>
 5    1  0.1133829E+000  0.9042384E+02  0.7818608E-02  0.1301829E+00
         -4   -1    0    0    0  501 -0.00000000000E+00  0.00000000000E+00  0.15702724862E+02  0.15766799551E+02  0.14200000000E+01 0.  1.
          4   -1    0    0  501    0  0.00000000000E+00 -0.00000000000E+00 -0.12984296904E+03  0.12985073357E+03  0.14200000000E+01 0. -1.
         23    2    1    2    0    0  0.00000000000E+00  0.00000000000E+00 -0.11414024418E+03  0.14561753312E+03  0.90423838737E+02 0.  0.
        -11    1    3    3    0    0 -0.21377514748E+02  0.38083396233E+01 -0.12093205855E+03  0.12286604240E+03  0.51100000000E-03 0. -1.
         11    1    3    3    0    0  0.21377514748E+02 -0.38083396233E+01  0.67918143773E+01  0.22751490727E+02  0.51100000000E-03 0.  1.
<mgrwt>
<rscale>  0 0.90423839E+02</rscale>
<asrwt>0</asrwt>
<pdfrwt beam="2">  1        4 0.19981367E-01 0.90423839E+02</pdfrwt>
<pdfrwt beam="1">  1       -4 0.24213300E-02 0.90423839E+02</pdfrwt>
<totfact> 0.24433489E+04</totfact>
</mgrwt>
</event>
<event>
 5    1  0.1133829E+000  0.8746360E+02  0.7818608E-02  0.1309113E+00
          4   -1    0    0  501    0  0.00000000000E+00  0.00000000000E+00  0.20598438619E+03  0.20598928068E+03  0.14200000000E+01 0.  1.
         -4   -1    0    0    0  501 -0.00000000000E+00 -0.00000000000E+00 -0.92252118581E+01  0.93338595355E+01  0.14200000000E+01 0. -1.
         23    2    1    2    0    0  0.00000000000E+00  0.00000000000E+00  0.19675917434E+03  0.21532314022E+03  0.87463604017E+02 0.  0.
        -11    1    3    3    0    0  0.32580396197E+02  0.19543892017E+02  0.15169602618E+03  0.15638136171E+03  0.51100000000E-03 0.  1.
         11    1    3    3    0    0 -0.32580396197E+02 -0.19543892017E+02  0.45063148157E+02  0.58941778508E+02  0.51100000000E-03 0. -1.
<mgrwt>
<rscale>  0 0.87463604E+02</rscale>
<asrwt>0</asrwt>
<pdfrwt beam="1">  1        4 0.31698641E-01 0.87463604E+02</pdfrwt>
<pdfrwt beam="2">  1       -4 0.14279973E-02 0.87463604E+02</pdfrwt>
<totfact> 0.23192441E+04</totfact>
</mgrwt>
</event>
<event>
 5    1  0.1133829E+000  0.8483022E+02  0.7818608E-02  0.1315877E+00
          4   -1    0    0  501    0  0.00000000000E+00  0.00000000000E+00  0.58265025259E+01  0.59970435787E+01  0.14200000000E+01 0. -1.
         -4   -1    0    0    0  501 -0.00000000000E+00 -0.00000000000E+00 -0.30414283944E+03  0.30414615431E+03  0.14200000000E+01 0.  1.
         23    2    1    2    0    0  0.00000000000E+00  0.00000000000E+00 -0.29831633691E+03  0.31014319789E+03  0.84830220604E+02 0.  0.
        -11    1    3    3    0    0  0.40246998093E+02  0.94092562957E+01 -0.11434181545E+03  0.12158291706E+03  0.51100000000E-03 0. -1.
         11    1    3    3    0    0 -0.40246998093E+02 -0.94092562957E+01 -0.18397452146E+03  0.18856028083E+03  0.51100000000E-03 0.  1.
<mgrwt>
<rscale>  0 0.84830221E+02</rscale>
<asrwt>0</asrwt>
<pdfrwt beam="1">  1        4 0.90975877E-03 0.84830221E+02</pdfrwt>
<pdfrwt beam="2">  1       -4 0.46804568E-01 0.84830221E+02</pdfrwt>
<totfact> 0.21190175E+04</totfact>
</mgrwt>
</event>
<event>
 5    1  0.1133829E+000  0.9015348E+02  0.7818608E-02  0.1302480E+00
         -4   -1    0    0    0  501 -0.00000000000E+00  0.00000000000E+00  0.18329000513E+02  0.18383923950E+02  0.14200000000E+01 0.  1.
          4   -1    0    0  501    0  0.00000000000E+00 -0.00000000000E+00 -0.11063244657E+03  0.11064155926E+03  0.14200000000E+01 0. -1.
         23    2    1    2    0    0  0.00000000000E+00  0.00000000000E+00 -0.92303446062E+02  0.12902548321E+03  0.90153475598E+02 0.  0.
        -11    1    3    3    0    0  0.35920494526E+02 -0.18141025753E+02 -0.17083220748E+02  0.43717447017E+02  0.51100000000E-03 0.  1.
         11    1    3    3    0    0 -0.35920494526E+02  0.18141025753E+02 -0.75220225313E+02  0.85308036191E+02  0.51100000000E-03 0. -1.
<mgrwt>
<rscale>  0 0.90153476E+02</rscale>
<asrwt>0</asrwt>
<pdfrwt beam="2">  1        4 0.17025302E-01 0.90153476E+02</pdfrwt>
<pdfrwt beam="1">  1       -4 0.28247722E-02 0.90153476E+02</pdfrwt>
<totfact> 0.25535041E+04</totfact>
</mgrwt>
</event>
<event>
 5    1  0.1133829E+000  0.8878265E+02  0.7818608E-02  0.1305827E+00
          4   -1    0    0  501    0  0.00000000000E+00  0.00000000000E+00  0.54849178803E+02  0.54867557038E+02  0.14200000000E+01 0. -1.
         -4   -1    0    0    0  501 -0.00000000000E+00 -0.00000000000E+00 -0.35888986547E+02  0.35917067744E+02  0.14200000000E+01 0.  1.
         23    2    1    2    0    0  0.00000000000E+00  0.00000000000E+00  0.18960192256E+02  0.90784624783E+02  0.88782651496E+02 0.  0.
        -11    1    3    3    0    0  0.40946628690E+02  0.64078799721E+01 -0.67814086558E+01  0.41996128756E+02  0.51100000000E-03 0.  1.
         11    1    3    3    0    0 -0.40946628690E+02 -0.64078799721E+01  0.25741600912E+02  0.48788496027E+02  0.51100000000E-03 0. -1.
<mgrwt>
<rscale>  0 0.88782651E+02</rscale>
<asrwt>0</asrwt>
<pdfrwt beam="1">  1        4 0.84419090E-02 0.88782651E+02</pdfrwt>
<pdfrwt beam="2">  1       -4 0.55249564E-02 0.88782651E+02</pdfrwt>
<totfact> 0.29059808E+04</totfact>
</mgrwt>
</event>
<event>
 5    1  0.1133829E+000  0.9132097E+02  0.7818608E-02  0.1299684E+00
         -4   -1    0    0    0  501 -0.00000000000E+00  0.00000000000E+00  0.22683397736E+02  0.22727800880E+02  0.14200000000E+01 0. -1.
          4   -1    0    0  501    0  0.00000000000E+00 -0.00000000000E+00 -0.91772375815E+02  0.91783361034E+02  0.14200000000E+01 0.  1.
         23    2    1    2    0    0  0.00000000000E+00  0.00000000000E+00 -0.69088978079E+02  0.11451116191E+03  0.91320968627E+02 0.  0.
        -11    1    3    3    0    0 -0.58262394787E+01 -0.22218118707E+02 -0.84028176378E+02  0.87110988348E+02  0.51100000000E-03 0.  1.
         11    1    3    3    0    0  0.58262394787E+01  0.22218118707E+02  0.14939198299E+02  0.27400173566E+02  0.51100000000E-03 0. -1.
<mgrwt>
<rscale>  0 0.91320969E+02</rscale>
<asrwt>0</asrwt>
<pdfrwt beam="2">  1        4 0.14123088E-01 0.91320969E+02</pdfrwt>
<pdfrwt beam="1">  1       -4 0.34940142E-02 0.91320969E+02</pdfrwt>
<totfact> 0.25478521E+04</totfact>
</mgrwt>
</event>
<event>
 5    1  0.1133829E+000  0.8942704E+02  0.7818608E-02  0.1304245E+00
         -4   -1    0    0    0  501 -0.00000000000E+00  0.00000000000E+00  0.85789798740E+02  0.85801549915E+02  0.14200000000E+01 0.  1.
          4   -1    0    0  501    0  0.00000000000E+00 -0.00000000000E+00 -0.23269632029E+02  0.23312918623E+02  0.14200000000E+01 0. -1.
         23    2    1    2    0    0  0.00000000000E+00  0.00000000000E+00  0.62520166711E+02  0.10911446854E+03  0.89427042883E+02 0.  0.
        -11    1    3    3    0    0  0.21479971277E+02 -0.38121895567E+02  0.20035299643E+02  0.48125682538E+02  0.51100000000E-03 0. -1.
         11    1    3    3    0    0 -0.21479971277E+02  0.38121895567E+02  0.42484867068E+02  0.60988786000E+02  0.51100000000E-03 0.  1.
<mgrwt>
<rscale>  0 0.89427043E+02</rscale>
<asrwt>0</asrwt>
<pdfrwt beam="2">  1        4 0.35841770E-02 0.89427043E+02</pdfrwt>
<pdfrwt beam="1">  1       -4 0.13202664E-01 0.89427043E+02</pdfrwt>
<totfact> 0.27295501E+04</totfact>
</mgrwt>
</event>
<event>
 5    1  0.1133829E+000  0.8492957E+02  0.7818608E-02  0.1315617E+00
         -4   -1    0    0    0  501 -0.00000000000E+00  0.00000000000E+00  0.13166831978E+02  0.13243181805E+02  0.14200000000E+01 0.  1.
          4   -1    0    0  501    0  0.00000000000E+00 -0.00000000000E+00 -0.13647859939E+03  0.13648598643E+03  0.14200000000E+01 0. -1.
         23    2    1    2    0    0  0.00000000000E+00  0.00000000000E+00 -0.12331176741E+03  0.14972916823E+03  0.84929569867E+02 0.  0.
        -11    1    3    3    0    0 -0.35364083156E+02  0.66970924497E+01 -0.10138317298E+03  0.10758260635E+03  0.51100000000E-03 0. -1.
         11    1    3    3    0    0  0.35364083156E+02 -0.66970924497E+01 -0.21928594431E+02  0.42146561885E+02  0.51100000000E-03 0.  1.
<mgrwt>
<rscale>  0 0.84929570E+02</rscale>
<asrwt>0</asrwt>
<pdfrwt beam="2">  1        4 0.21003148E-01 0.84929570E+02</pdfrwt>
<pdfrwt beam="1">  1       -4 0.20321079E-02 0.84929570E+02</pdfrwt>
<totfact> 0.28636601E+04</totfact>
</mgrwt>
</event>
<event>
 5    1  0.1133829E+000  0.8648212E+02  0.7818608E-02  0.1311602E+00
          4   -1    0    0  501    0  0.00000000000E+00  0.00000000000E+00  0.52662669074E+01  0.54543530450E+01  0.14200000000E+01 0. -1.
         -4   -1    0    0    0  501 -0.00000000000E+00 -0.00000000000E+00 -0.34863152621E+03  0.34863441808E+03  0.14200000000E+01 0.  1.
         23    2    1    2    0    0  0.00000000000E+00  0.00000000000E+00 -0.34336525931E+03  0.35408877112E+03  0.86482116871E+02 0.  0.
        -11    1    3    3    0    0  0.31861431263E+02 -0.27965836509E+02 -0.20655693060E+03  0.21086252486E+03  0.51100000000E-03 0. -1.
         11    1    3    3    0    0 -0.31861431263E+02  0.27965836509E+02 -0.13680832871E+03  0.14322624626E+03  0.51100000000E-03 0.  1.
<mgrwt>
<rscale>  0 0.86482117E+02</rscale>
<asrwt>0</asrwt>
<pdfrwt beam="1">  1        4 0.82488580E-03 0.86482117E+02</pdfrwt>
<pdfrwt beam="2">  1       -4 0.53650292E-01 0.86482117E+02</pdfrwt>
<totfact> 0.18725270E+04</totfact>
</mgrwt>
</event>
<event>
 5    1  0.1133829E+000  0.8793930E+02  0.7818608E-02  0.1307920E+00
          4   -1    0    0  501    0  0.00000000000E+00  0.00000000000E+00  0.95827426507E+02  0.95837946926E+02  0.14200000000E+01 0. -1.
         -4   -1    0    0    0  501 -0.00000000000E+00 -0.00000000000E+00 -0.20138494514E+02  0.20188495766E+02  0.14200000000E+01 0.  1.
         23    2    1    2    0    0  0.00000000000E+00  0.00000000000E+00  0.75688931993E+02  0.11602644269E+03  0.87939302803E+02 0.  0.
        -11    1    3    3    0    0  0.29059701750E+02  0.30418046696E+02  0.20968287069E+02  0.47004179532E+02  0.51100000000E-03 0.  1.
         11    1    3    3    0    0 -0.29059701750E+02 -0.30418046696E+02  0.54720644924E+02  0.69022263160E+02  0.51100000000E-03 0. -1.
<mgrwt>
<rscale>  0 0.87939303E+02</rscale>
<asrwt>0</asrwt>
<pdfrwt beam="1">  1        4 0.14747337E-01 0.87939303E+02</pdfrwt>
<pdfrwt beam="2">  1       -4 0.31028854E-02 0.87939303E+02</pdfrwt>
<totfact> 0.28106364E+04</totfact>
</mgrwt>
</event>
<event>
 5    1  0.1133829E+000  0.9016010E+02  0.7818608E-02  0.1302464E+00
          4   -1    0    0  501    0  0.00000000000E+00  0.00000000000E+00  0.23965260539E+02  0.24007292906E+02  0.14200000000E+01 0. -1.
         -4   -1    0    0    0  501 -0.00000000000E+00 -0.00000000000E+00 -0.84675911455E+02  0.84687817192E+02  0.14200000000E+01 0.  1.
         23    2    1    2    0    0  0.00000000000E+00  0.00000000000E+00 -0.60710650917E+02  0.10869511010E+03  0.90160101068E+02 0.  0.
        -11    1    3    3    0    0  0.72884271795E+01 -0.43584537608E+02 -0.19607546711E+02  0.48344482390E+02  0.51100000000E-03 0. -1.
         11    1    3    3    0    0 -0.72884271795E+01  0.43584537608E+02 -0.41103104206E+02  0.60350627709E+02  0.51100000000E-03 0.  1.
<mgrwt>
<rscale>  0 0.90160101E+02</rscale>
<asrwt>0</asrwt>
<pdfrwt beam="1">  1        4 0.36911123E-02 0.90160101E+02</pdfrwt>
<pdfrwt beam="2">  1       -4 0.13031212E-01 0.90160101E+02</pdfrwt>
<totfact> 0.26727425E+04</totfact>
</mgrwt>
</event>
<event>
 5    1  0.1133829E+000  0.9185563E+02  0.7818608E-02  0.1298419E+00
          4   -1    0    0  501    0  0.00000000000E+00  0.00000000000E+00  0.20737085874E+03  0.20737572051E+03  0.14200000000E+01 0. -1.
         -4   -1    0    0    0  501 -0.00000000000E+00 -0.00000000000E+00 -0.10117378517E+02  0.10216542862E+02  0.14200000000E+01 0.  1.
         23    2    1    2    0    0  0.00000000000E+00  0.00000000000E+00  0.19725348023E+03  0.21759226337E+03  0.91855634649E+02 0.  0.
        -11    1    3    3    0    0  0.31756560294E+02 -0.32885850740E+02  0.88191394967E+02  0.99336199077E+02  0.51100000000E-03 0. -1.
         11    1    3    3    0    0 -0.31756560294E+02  0.32885850740E+02  0.10906208526E+03  0.11825606429E+03  0.51100000000E-03 0.  1.
<mgrwt>
<rscale>  0 0.91855635E+02</rscale>
<asrwt>0</asrwt>
<pdfrwt beam="1">  1        4 0.31911208E-01 0.91855635E+02</pdfrwt>
<pdfrwt beam="2">  1       -4 0.15645219E-02 0.91855635E+02</pdfrwt>
<totfact> 0.20266371E+04</totfact>
</mgrwt>
</event>
<event>
 5    1  0.1133829E+000  0.9242308E+02  0.7818608E-02  0.1297088E+00
         -4   -1    0    0    0  501 -0.00000000000E+00  0.00000000000E+00  0.14254554684E+03  0.14255261949E+03  0.14200000000E+01 0.  1.
          4   -1    0    0  501    0  0.00000000000E+00 -0.00000000000E+00 -0.14940110754E+02  0.15007441799E+02  0.14200000000E+01 0. -1.
         23    2    1    2    0    0  0.00000000000E+00  0.00000000000E+00  0.12760543608E+03  0.15756006129E+03  0.92423079341E+02 0.  0.
        -11    1    3    3    0    0 -0.11688568769E+02 -0.44466378655E+02  0.55875094089E+02  0.72359571656E+02  0.51100000000E-03 0. -1.
         11    1    3    3    0    0  0.11688568769E+02  0.44466378655E+02  0.71730341993E+02  0.85200489630E+02  0.51100000000E-03 0.  1.
<mgrwt>
<rscale>  0 0.92423079E+02</rscale>
<asrwt>0</asrwt>
<pdfrwt beam="2">  1        4 0.23042019E-02 0.92423079E+02</pdfrwt>
<pdfrwt beam="1">  1       -4 0.21935807E-01 0.92423079E+02</pdfrwt>
<totfact> 0.22461933E+04</totfact>
</mgrwt>
</event>
<event>
 5    1  0.1133829E+000  0.9166206E+02  0.7818608E-02  0.1298876E+00
         -4   -1    0    0    0  501 -0.00000000000E+00  0.00000000000E+00  0.31124857102E+03  0.31125181022E+03  0.14200000000E+01 0.  1.
          4   -1    0    0  501    0  0.00000000000E+00 -0.00000000000E+00 -0.66705641202E+01  0.68200312082E+01  0.14200000000E+01 0. -1.
         23    2    1    2    0    0  0.00000000000E+00  0.00000000000E+00  0.30457800690E+03  0.31807184142E+03  0.91662064231E+02 0.  0.
        -11    1    3    3    0    0  0.44080063630E+02  0.11678323215E+02  0.13636897982E+03  0.14379128590E+03  0.51100000000E-03 0.  1.
         11    1    3    3    0    0 -0.44080063630E+02 -0.11678323215E+02  0.16820902708E+03  0.17428055553E+03  0.51100000000E-03 0. -1.
<mgrwt>
<rscale>  0 0.91662064E+02</rscale>
<asrwt>0</asrwt>
<pdfrwt beam="2">  1        4 0.10379873E-02 0.91662064E+02</pdfrwt>
<pdfrwt beam="1">  1       -4 0.47896142E-01 0.91662064E+02</pdfrwt>
<totfact> 0.17040371E+04</totfact>
</mgrwt>
</event>
<event>
 5    1  0.1133829E+000  0.8983154E+02  0.7818608E-02  0.1303260E+00
          4   -1    0    0  501    0  0.00000000000E+00  0.00000000000E+00  0.41897185352E+03  0.41897425988E+03  0.14200000000E+01 0. -1.
         -4   -1    0    0    0  501 -0.00000000000E+00 -0.00000000000E+00 -0.47080209073E+01  0.49175055530E+01  0.14200000000E+01 0.  1.
         23    2    1    2    0    0  0.00000000000E+00  0.00000000000E+00  0.41426383261E+03  0.42389176543E+03  0.89831541180E+02 0.  0.
        -11    1    3    3    0    0  0.38354529055E+02  0.20585681181E+02  0.15488663641E+03  0.16088725962E+03  0.51100000000E-03 0. -1.
         11    1    3    3    0    0 -0.38354529055E+02 -0.20585681181E+02  0.25937719620E+03  0.26300450581E+03  0.51100000000E-03 0.  1.
<mgrwt>
<rscale>  0 0.89831541E+02</rscale>
<asrwt>0</asrwt>
<pdfrwt beam="1">  1        4 0.64473513E-01 0.89831541E+02</pdfrwt>
<pdfrwt beam="2">  1       -4 0.74061016E-03 0.89831541E+02</pdfrwt>
<totfact> 0.15191473E+04</totfact>
</mgrwt>
</event>
<event>
 5    1  0.1133829E+000  0.8708391E+02  0.7818608E-02  0.1310071E+00
         -4   -1    0    0    0  501 -0.00000000000E+00  0.00000000000E+00  0.12994029031E+03  0.12994804903E+03  0.14200000000E+01 0.  1.
          4   -1    0    0  501    0  0.00000000000E+00 -0.00000000000E+00 -0.14547796410E+02  0.14616934712E+02  0.14200000000E+01 0. -1.
         23    2    1    2    0    0  0.00000000000E+00  0.00000000000E+00  0.11539249390E+03  0.14456498374E+03  0.87083907096E+02 0.  0.
        -11    1    3    3    0    0 -0.25927389662E+02 -0.26217462747E+02  0.19251596274E+02  0.41595779197E+02  0.51100000000E-03 0. -1.
         11    1    3    3    0    0  0.25927389662E+02  0.26217462747E+02  0.96140897626E+02  0.10296920454E+03  0.51100000000E-03 0.  1.
<mgrwt>
<rscale>  0 0.87083907E+02</rscale>
<asrwt>0</asrwt>
<pdfrwt beam="2">  1        4 0.22440376E-02 0.87083907E+02</pdfrwt>
<pdfrwt beam="1">  1       -4 0.19996730E-01 0.87083907E+02</pdfrwt>
<totfact> 0.27085209E+04</totfact>
</mgrwt>
</event>
<event>
 4    1  0.1133829E+000  0.2962197E+02  0.7818608E-02  0.1602305E+00
          4   -1    0    0  501    0  0.00000000000E+00  0.00000000000E+00  0.66941760154E+02  0.66956819313E+02  0.14200000000E+01 0. -1.
         -4   -1    0    0    0  501 -0.00000000000E+00 -0.00000000000E+00 -0.31069515612E+01  0.34160720138E+01  0.14200000000E+01 0.  1.
        -11    1    1    2    0    0  0.13177921797E+02  0.98027963974E+00  0.47809161825E+02  0.49601759301E+02  0.51100000000E-03 0. -1.
         11    1    1    2    0    0 -0.13177921797E+02 -0.98027963974E+00  0.16025646768E+02  0.20771132026E+02  0.51100000000E-03 0.  1.
<mgrwt>
<rscale>  0 0.29621969E+02</rscale>
<asrwt>0</asrwt>
<pdfrwt beam="1">  1        4 0.10323670E-01 0.29621969E+02</pdfrwt>
<pdfrwt beam="2">  1       -4 0.50292943E-03 0.29621969E+02</pdfrwt>
<totfact> 0.46615074E+05</totfact>
</mgrwt>
</event>
<event>
 5    1  0.1133829E+000  0.8928804E+02  0.7818608E-02  0.1304585E+00
         -4   -1    0    0    0  501 -0.00000000000E+00  0.00000000000E+00  0.80707091445E+02  0.80719582566E+02  0.14200000000E+01 0.  1.
          4   -1    0    0  501    0  0.00000000000E+00 -0.00000000000E+00 -0.24660503151E+02  0.24701352507E+02  0.14200000000E+01 0. -1.
         23    2    1    2    0    0  0.00000000000E+00  0.00000000000E+00  0.56046588294E+02  0.10542093507E+03  0.89288036669E+02 0.  0.
        -11    1    3    3    0    0 -0.99670487968E+01  0.14309910222E+02  0.76545989348E+02  0.78507350470E+02  0.51100000000E-03 0.  1.
         11    1    3    3    0    0  0.99670487968E+01 -0.14309910222E+02 -0.20499401054E+02  0.26913584602E+02  0.51100000000E-03 0. -1.
<mgrwt>
<rscale>  0 0.89288037E+02</rscale>
<asrwt>0</asrwt>
<pdfrwt beam="2">  1        4 0.37980267E-02 0.89288037E+02</pdfrwt>
<pdfrwt beam="1">  1       -4 0.12420579E-01 0.89288037E+02</pdfrwt>
<totfact> 0.27645322E+04</totfact>
</mgrwt>
</event>
<event>
 5    1  0.1133829E+000  0.8891537E+02  0.7818608E-02  0.1305500E+00
          4   -1    0    0  501    0  0.00000000000E+00  0.00000000000E+00  0.95925524083E+01  0.96970852170E+01  0.14200000000E+01 0. -1.
         -4   -1    0    0    0  501 -0.00000000000E+00 -0.00000000000E+00 -0.20482019718E+03  0.20482511949E+03  0.14200000000E+01 0.  1.
         23    2    1    2    0    0  0.00000000000E+00  0.00000000000E+00 -0.19522764477E+03  0.21452220471E+03  0.88915370032E+02 0.  0.
        -11    1    3    3    0    0 -0.17567207361E+02  0.34206532460E+02 -0.15144320762E+03  0.15624896407E+03  0.51100000000E-03 0.  1.
         11    1    3    3    0    0  0.17567207361E+02 -0.34206532460E+02 -0.43784437149E+02  0.58273240635E+02  0.51100000000E-03 0. -1.
<mgrwt>
<rscale>  0 0.88915370E+02</rscale>
<asrwt>0</asrwt>
<pdfrwt beam="1">  1        4 0.14841971E-02 0.88915370E+02</pdfrwt>
<pdfrwt beam="2">  1       -4 0.31519216E-01 0.88915370E+02</pdfrwt>
<totfact> 0.22233892E+04</totfact>
</mgrwt>
</event>
<event>
 5    1  0.1133829E+000  0.9159500E+02  0.7818608E-02  0.1299034E+00
         -4   -1    0    0    0  501 -0.00000000000E+00  0.00000000000E+00  0.81946227933E+02  0.81958530200E+02  0.14200000000E+01 0.  1.
          4   -1    0    0  501    0  0.00000000000E+00 -0.00000000000E+00 -0.25561038270E+02  0.25600450727E+02  0.14200000000E+01 0. -1.
         23    2    1    2    0    0  0.00000000000E+00  0.00000000000E+00  0.56385189664E+02  0.10755898093E+03  0.91595004038E+02 0.  0.
        -11    1    3    3    0    0 -0.45240764181E+02 -0.68654457161E+01  0.30405156213E+02  0.54939372159E+02  0.51100000000E-03 0. -1.
         11    1    3    3    0    0  0.45240764181E+02  0.68654457161E+01  0.25980033450E+02  0.52619608768E+02  0.51100000000E-03 0.  1.
<mgrwt>
<rscale>  0 0.91595004E+02</rscale>
<asrwt>0</asrwt>
<pdfrwt beam="2">  1        4 0.39364455E-02 0.91595004E+02</pdfrwt>
<pdfrwt beam="1">  1       -4 0.12611090E-01 0.91595004E+02</pdfrwt>
<totfact> 0.25677475E+04</totfact>
</mgrwt>
</event>
<event>
 5    1  0.1133829E+000  0.9223403E+02  0.7818608E-02  0.1297530E+00
         -4   -1    0    0    0  501 -0.00000000000E+00  0.00000000000E+00  0.89173680002E+02  0.89184985312E+02  0.14200000000E+01 0.  1.
          4   -1    0    0  501    0  0.00000000000E+00 -0.00000000000E+00 -0.23815887553E+02  0.23858183081E+02  0.14200000000E+01 0. -1.
         23    2    1    2    0    0  0.00000000000E+00  0.00000000000E+00  0.65357792449E+02  0.11304316839E+03  0.92234033234E+02 0.  0.
        -11    1    3    3    0    0 -0.26627245937E+02 -0.35793222260E+02  0.47004109599E+02  0.64803945138E+02  0.51100000000E-03 0.  1.
         11    1    3    3    0    0  0.26627245937E+02  0.35793222260E+02  0.18353682850E+02  0.48239223256E+02  0.51100000000E-03 0. -1.
<mgrwt>
<rscale>  0 0.92234033E+02</rscale>
<asrwt>0</asrwt>
<pdfrwt beam="2">  1        4 0.36681058E-02 0.92234033E+02</pdfrwt>
<pdfrwt beam="1">  1       -4 0.13723151E-01 0.92234033E+02</pdfrwt>
<totfact> 0.24883272E+04</totfact>
</mgrwt>
</event>
<event>
 5    1  0.1133829E+000  0.8464684E+02  0.7818608E-02  0.1316359E+00
          4   -1    0    0  501    0  0.00000000000E+00  0.00000000000E+00  0.67816944215E+02  0.67831809077E+02  0.14200000000E+01 0. -1.
         -4   -1    0    0    0  501 -0.00000000000E+00 -0.00000000000E+00 -0.26376479410E+02  0.26414675203E+02  0.14200000000E+01 0.  1.
         23    2    1    2    0    0  0.00000000000E+00  0.00000000000E+00  0.41440464805E+02  0.94246484280E+02  0.84646840909E+02 0.  0.
        -11    1    3    3    0    0 -0.28916875671E+00 -0.14243322378E+02  0.65093648948E+02  0.66634367894E+02  0.51100000000E-03 0. -1.
         11    1    3    3    0    0  0.28916875671E+00  0.14243322378E+02 -0.23653184144E+02  0.27612116386E+02  0.51100000000E-03 0.  1.
<mgrwt>
<rscale>  0 0.84646841E+02</rscale>
<asrwt>0</asrwt>
<pdfrwt beam="1">  1        4 0.10437458E-01 0.84646841E+02</pdfrwt>
<pdfrwt beam="2">  1       -4 0.40620015E-02 0.84646841E+02</pdfrwt>
<totfact> 0.32765155E+04</totfact>
</mgrwt>
</event>
<event>
 5    1  0.1133829E+000  0.9827325E+02  0.7818608E-02  0.1283970E+00
          4   -1    0    0  501    0  0.00000000000E+00  0.00000000000E+00  0.42056744440E+02  0.42080709986E+02  0.14200000000E+01 0. -1.
         -4   -1    0    0    0  501 -0.00000000000E+00 -0.00000000000E+00 -0.57359237929E+02  0.57376812178E+02  0.14200000000E+01 0.  1.
         23    2    1    2    0    0  0.00000000000E+00  0.00000000000E+00 -0.15302493489E+02  0.99457522164E+02  0.98273253778E+02 0.  0.
        -11    1    3    3    0    0 -0.87061408156E+01 -0.47690295722E+02 -0.15763255570E+02  0.50976871426E+02  0.51100000000E-03 0.  1.
         11    1    3    3    0    0  0.87061408156E+01  0.47690295722E+02  0.46076208169E+00  0.48480650738E+02  0.51100000000E-03 0. -1.
<mgrwt>
<rscale>  0 0.98273254E+02</rscale>
<asrwt>0</asrwt>
<pdfrwt beam="1">  1        4 0.64734638E-02 0.98273254E+02</pdfrwt>
<pdfrwt beam="2">  1       -4 0.88276935E-02 0.98273254E+02</pdfrwt>
<totfact> 0.21592492E+04</totfact>
</mgrwt>
</event>
<event>
 5    1  0.1133829E+000  0.9502206E+02  0.7818608E-02  0.1291126E+00
         -4   -1    0    0    0  501 -0.00000000000E+00  0.00000000000E+00  0.26105728556E+02  0.26144319908E+02  0.14200000000E+01 0.  1.
          4   -1    0    0  501    0  0.00000000000E+00 -0.00000000000E+00 -0.86359245073E+02  0.86370918773E+02  0.14200000000E+01 0. -1.
         23    2    1    2    0    0  0.00000000000E+00  0.00000000000E+00 -0.60253516518E+02  0.11251523868E+03  0.95022064188E+02 0.  0.
        -11    1    3    3    0    0  0.39705738333E+02  0.39793340434E+01  0.40633041756E+00  0.39906714481E+02  0.51100000000E-03 0.  1.
         11    1    3    3    0    0 -0.39705738333E+02 -0.39793340434E+01 -0.60659846935E+02  0.72608524200E+02  0.51100000000E-03 0. -1.
<mgrwt>
<rscale>  0 0.95022064E+02</rscale>
<asrwt>0</asrwt>
<pdfrwt beam="2">  1        4 0.13289904E-01 0.95022064E+02</pdfrwt>
<pdfrwt beam="1">  1       -4 0.40201325E-02 0.95022064E+02</pdfrwt>
<totfact> 0.22975738E+04</totfact>
</mgrwt>
</event>
<event>
 5    1  0.1133829E+000  0.9060264E+02  0.7818608E-02  0.1301399E+00
          4   -1    0    0  501    0  0.00000000000E+00  0.00000000000E+00  0.18075263077E+02  0.18130955168E+02  0.14200000000E+01 0. -1.
         -4   -1    0    0    0  501 -0.00000000000E+00 -0.00000000000E+00 -0.11330212499E+03  0.11331102297E+03  0.14200000000E+01 0.  1.
         23    2    1    2    0    0  0.00000000000E+00  0.00000000000E+00 -0.95226861912E+02  0.13144197814E+03  0.90602640070E+02 0.  0.
        -11    1    3    3    0    0  0.10310375305E+02  0.42117990016E+02 -0.66638798602E+02  0.79504455230E+02  0.51100000000E-03 0.  1.
         11    1    3    3    0    0 -0.10310375305E+02 -0.42117990016E+02 -0.28588063310E+02  0.51937522910E+02  0.51100000000E-03 0. -1.
<mgrwt>
<rscale>  0 0.90602640E+02</rscale>
<asrwt>0</asrwt>
<pdfrwt beam="1">  1        4 0.27857782E-02 0.90602640E+02</pdfrwt>
<pdfrwt beam="2">  1       -4 0.17436064E-01 0.90602640E+02</pdfrwt>
<totfact> 0.25062432E+04</totfact>
</mgrwt>
</event>
<event>
 5    1  0.1133829E+000  0.8638465E+02  0.7818608E-02  0.1311851E+00
          4   -1    0    0  501    0  0.00000000000E+00  0.00000000000E+00  0.33549578052E+02  0.33579615654E+02  0.14200000000E+01 0.  1.
         -4   -1    0    0    0  501 -0.00000000000E+00 -0.00000000000E+00 -0.55542574093E+02  0.55560722970E+02  0.14200000000E+01 0. -1.
         23    2    1    2    0    0  0.00000000000E+00  0.00000000000E+00 -0.21992996042E+02  0.89140338623E+02  0.86384651964E+02 0.  0.
        -11    1    3    3    0    0  0.15867214176E+02 -0.72692475731E+00 -0.52443448529E+02  0.54796096569E+02  0.51100000000E-03 0. -1.
         11    1    3    3    0    0 -0.15867214176E+02  0.72692475731E+00  0.30450452488E+02  0.34344242054E+02  0.51100000000E-03 0.  1.
<mgrwt>
<rscale>  0 0.86384652E+02</rscale>
<asrwt>0</asrwt>
<pdfrwt beam="1">  1        4 0.51651802E-02 0.86384652E+02</pdfrwt>
<pdfrwt beam="2">  1       -4 0.85487181E-02 0.86384652E+02</pdfrwt>
<totfact> 0.31410036E+04</totfact>
</mgrwt>
</event>
<event>
 5    1  0.1133829E+000  0.9087246E+02  0.7818608E-02  0.1300753E+00
          4   -1    0    0  501    0  0.00000000000E+00  0.00000000000E+00  0.58338754729E+02  0.58356033992E+02  0.14200000000E+01 0. -1.
         -4   -1    0    0    0  501 -0.00000000000E+00 -0.00000000000E+00 -0.35350525854E+02  0.35379034444E+02  0.14200000000E+01 0.  1.
         23    2    1    2    0    0  0.00000000000E+00  0.00000000000E+00  0.22988228874E+02  0.93735068436E+02  0.90872462209E+02 0.  0.
        -11    1    3    3    0    0 -0.12472698627E+02  0.26982770875E+02 -0.23951324691E+02  0.38174652452E+02  0.51100000000E-03 0.  1.
         11    1    3    3    0    0  0.12472698627E+02 -0.26982770875E+02  0.46939553565E+02  0.55560415984E+02  0.51100000000E-03 0. -1.
<mgrwt>
<rscale>  0 0.90872462E+02</rscale>
<asrwt>0</asrwt>
<pdfrwt beam="1">  1        4 0.89787152E-02 0.90872462E+02</pdfrwt>
<pdfrwt beam="2">  1       -4 0.54420646E-02 0.90872462E+02</pdfrwt>
<totfact> 0.27097133E+04</totfact>
</mgrwt>
</event>
<event>
 5    1  0.1133829E+000  0.8601498E+02  0.7818608E-02  0.1312799E+00
         -4   -1    0    0    0  501 -0.00000000000E+00  0.00000000000E+00  0.84683691766E+01  0.85865986578E+01  0.14200000000E+01 0.  1.
          4   -1    0    0  501    0  0.00000000000E+00 -0.00000000000E+00 -0.21678328887E+03  0.21678793954E+03  0.14200000000E+01 0. -1.
         23    2    1    2    0    0  0.00000000000E+00  0.00000000000E+00 -0.20831491969E+03  0.22537453820E+03  0.86014979534E+02 0.  0.
        -11    1    3    3    0    0  0.35015048918E+02  0.24709710679E+02 -0.11361217205E+03  0.12142631136E+03  0.51100000000E-03 0. -1.
         11    1    3    3    0    0 -0.35015048918E+02 -0.24709710679E+02 -0.94702747641E+02  0.10394822684E+03  0.51100000000E-03 0.  1.
<mgrwt>
<rscale>  0 0.86014980E+02</rscale>
<asrwt>0</asrwt>
<pdfrwt beam="2">  1        4 0.33360723E-01 0.86014980E+02</pdfrwt>
<pdfrwt beam="1">  1       -4 0.13122785E-02 0.86014980E+02</pdfrwt>
<totfact> 0.23782144E+04</totfact>
</mgrwt>
</event>
<event>
 5    1  0.1133829E+000  0.9160011E+02  0.7818608E-02  0.1299022E+00
          4   -1    0    0  501    0  0.00000000000E+00  0.00000000000E+00  0.13626199067E+02  0.13699989088E+02  0.14200000000E+01 0. -1.
         -4   -1    0    0    0  501 -0.00000000000E+00 -0.00000000000E+00 -0.15344926083E+03  0.15345583094E+03  0.14200000000E+01 0.  1.
         23    2    1    2    0    0  0.00000000000E+00  0.00000000000E+00 -0.13982306176E+03  0.16715582003E+03  0.91600106813E+02 0.  0.
        -11    1    3    3    0    0  0.36927606357E+02  0.43389702233E+01 -0.11871269729E+03  0.12439927360E+03  0.51100000000E-03 0.  1.
         11    1    3    3    0    0 -0.36927606357E+02 -0.43389702233E+01 -0.21110364470E+02  0.42756546425E+02  0.51100000000E-03 0. -1.
<mgrwt>
<rscale>  0 0.91600107E+02</rscale>
<asrwt>0</asrwt>
<pdfrwt beam="1">  1        4 0.21025200E-02 0.91600107E+02</pdfrwt>
<pdfrwt beam="2">  1       -4 0.23613759E-01 0.91600107E+02</pdfrwt>
<totfact> 0.22557413E+04</totfact>
</mgrwt>
</event>
<event>
 5    1  0.1133829E+000  0.5670953E+02  0.7818608E-02  0.1412183E+00
         -4   -1    0    0    0  501 -0.00000000000E+00  0.00000000000E+00  0.10479354026E+02  0.10575124624E+02  0.14200000000E+01 0.  1.
          4   -1    0    0  501    0  0.00000000000E+00 -0.00000000000E+00 -0.76270187741E+02  0.76283405391E+02  0.14200000000E+01 0. -1.
         23    2    1    2    0    0  0.00000000000E+00  0.00000000000E+00 -0.65790833715E+02  0.86858530015E+02  0.56709526849E+02 0.  0.
        -11    1    3    3    0    0 -0.17594273622E+02  0.18400158018E+02 -0.52017508333E+02  0.57913258005E+02  0.51100000000E-03 0. -1.
         11    1    3    3    0    0  0.17594273622E+02 -0.18400158018E+02 -0.13773325382E+02  0.28945272010E+02  0.51100000000E-03 0.  1.
<mgrwt>
<rscale>  0 0.56709527E+02</rscale>
<asrwt>0</asrwt>
<pdfrwt beam="2">  1        4 0.11742258E-01 0.56709527E+02</pdfrwt>
<pdfrwt beam="1">  1       -4 0.16205921E-02 0.56709527E+02</pdfrwt>
<totfact> 0.94687098E+04</totfact>
</mgrwt>
</event>
<event>
 5    1  0.1133829E+000  0.9026324E+02  0.7818608E-02  0.1302215E+00
         -4   -1    0    0    0  501 -0.00000000000E+00  0.00000000000E+00  0.51649154661E+02  0.51668671138E+02  0.14200000000E+01 0.  1.
          4   -1    0    0  501    0  0.00000000000E+00 -0.00000000000E+00 -0.39396766175E+02  0.39422348802E+02  0.14200000000E+01 0. -1.
         23    2    1    2    0    0  0.00000000000E+00  0.00000000000E+00  0.12252388486E+02  0.91091019940E+02  0.90263242187E+02 0.  0.
        -11    1    3    3    0    0 -0.35458637737E+02  0.25886899809E+02 -0.44299749773E+01  0.44125630312E+02  0.51100000000E-03 0. -1.
         11    1    3    3    0    0  0.35458637737E+02 -0.25886899809E+02  0.16682363463E+02  0.46965389628E+02  0.51100000000E-03 0.  1.
<mgrwt>
<rscale>  0 0.90263242E+02</rscale>
<asrwt>0</asrwt>
<pdfrwt beam="2">  1        4 0.60645101E-02 0.90263242E+02</pdfrwt>
<pdfrwt beam="1">  1       -4 0.79494930E-02 0.90263242E+02</pdfrwt>
<totfact> 0.27769380E+04</totfact>
</mgrwt>
</event>
<event>
 5    1  0.1133829E+000  0.9063225E+02  0.7818608E-02  0.1301328E+00
          4   -1    0    0  501    0  0.00000000000E+00  0.00000000000E+00  0.42372948464E+02  0.42396735270E+02  0.14200000000E+01 0. -1.
         -4   -1    0    0    0  501 -0.00000000000E+00 -0.00000000000E+00 -0.48415929542E+02  0.48436748791E+02  0.14200000000E+01 0.  1.
         23    2    1    2    0    0  0.00000000000E+00  0.00000000000E+00 -0.60429810775E+01  0.90833484061E+02  0.90632247055E+02 0.  0.
        -11    1    3    3    0    0 -0.33425515870E+02 -0.10005012803E+02  0.25959590571E+02  0.43488685141E+02  0.51100000000E-03 0. -1.
         11    1    3    3    0    0  0.33425515870E+02  0.10005012803E+02 -0.32002571649E+02  0.47344798920E+02  0.51100000000E-03 0.  1.
<mgrwt>
<rscale>  0 0.90632247E+02</rscale>
<asrwt>0</asrwt>
<pdfrwt beam="1">  1        4 0.65223464E-02 0.90632247E+02</pdfrwt>
<pdfrwt beam="2">  1       -4 0.74520358E-02 0.90632247E+02</pdfrwt>
<totfact> 0.27481188E+04</totfact>
</mgrwt>
</event>
<event>
 5    1  0.1133829E+000  0.9052359E+02  0.7818608E-02  0.1301589E+00
         -4   -1    0    0    0  501 -0.00000000000E+00  0.00000000000E+00  0.33335343371E+02  0.33365573840E+02  0.14200000000E+01 0.  1.
          4   -1    0    0  501    0  0.00000000000E+00 -0.00000000000E+00 -0.61388904110E+02  0.61405325077E+02  0.14200000000E+01 0. -1.
         23    2    1    2    0    0  0.00000000000E+00  0.00000000000E+00 -0.28053560739E+02  0.94770898917E+02  0.90523593672E+02 0.  0.
        -11    1    3    3    0    0  0.24668387170E+02  0.99435457314E+01  0.24314298474E+02  0.36035933980E+02  0.51100000000E-03 0.  1.
         11    1    3    3    0    0 -0.24668387170E+02 -0.99435457314E+01 -0.52367859214E+02  0.58734964937E+02  0.51100000000E-03 0. -1.
<mgrwt>
<rscale>  0 0.90523594E+02</rscale>
<asrwt>0</asrwt>
<pdfrwt beam="2">  1        4 0.94480353E-02 0.90523594E+02</pdfrwt>
<pdfrwt beam="1">  1       -4 0.51321030E-02 0.90523594E+02</pdfrwt>
<totfact> 0.27312953E+04</totfact>
</mgrwt>
</event>
<event>
 5    1  0.1133829E+000  0.8476226E+02  0.7818608E-02  0.1316055E+00
         -4   -1    0    0    0  501 -0.00000000000E+00  0.00000000000E+00  0.43449226226E+02  0.43472424129E+02  0.14200000000E+01 0.  1.
          4   -1    0    0  501    0  0.00000000000E+00 -0.00000000000E+00 -0.41292855903E+02  0.41317264534E+02  0.14200000000E+01 0. -1.
         23    2    1    2    0    0  0.00000000000E+00  0.00000000000E+00  0.21563703233E+01  0.84789688663E+02  0.84762263836E+02 0.  0.
        -11    1    3    3    0    0 -0.26456037955E+02 -0.12087762948E+02  0.31912246034E+02  0.43179015790E+02  0.51100000000E-03 0.  1.
         11    1    3    3    0    0  0.26456037955E+02  0.12087762948E+02 -0.29755875711E+02  0.41610672873E+02  0.51100000000E-03 0. -1.
<mgrwt>
<rscale>  0 0.84762264E+02</rscale>
<asrwt>0</asrwt>
<pdfrwt beam="2">  1        4 0.63564091E-02 0.84762264E+02</pdfrwt>
<pdfrwt beam="1">  1       -4 0.66881584E-02 0.84762264E+02</pdfrwt>
<totfact> 0.33406725E+04</totfact>
</mgrwt>
</event>
<event>
 5    1  0.1133829E+000  0.9042749E+02  0.7818608E-02  0.1301820E+00
         -4   -1    0    0    0  501 -0.00000000000E+00  0.00000000000E+00  0.22833890048E+03  0.22834331580E+03  0.14200000000E+01 0.  1.
          4   -1    0    0  501    0  0.00000000000E+00 -0.00000000000E+00 -0.88920083344E+01  0.90046772412E+01  0.14200000000E+01 0. -1.
         23    2    1    2    0    0  0.00000000000E+00  0.00000000000E+00  0.21944689214E+03  0.23734799304E+03  0.90427492115E+02 0.  0.
        -11    1    3    3    0    0 -0.38540213217E+02  0.23483033091E+02  0.11690291969E+03  0.12531198470E+03  0.51100000000E-03 0.  1.
         11    1    3    3    0    0  0.38540213217E+02 -0.23483033091E+02  0.10254397246E+03  0.11203600834E+03  0.51100000000E-03 0. -1.
<mgrwt>
<rscale>  0 0.90427492E+02</rscale>
<asrwt>0</asrwt>
<pdfrwt beam="2">  1        4 0.13770078E-02 0.90427492E+02</pdfrwt>
<pdfrwt beam="1">  1       -4 0.35138066E-01 0.90427492E+02</pdfrwt>
<totfact> 0.20363796E+04</totfact>
</mgrwt>
</event>
<event>
 5    1  0.1133829E+000  0.9092232E+02  0.7818608E-02  0.1300633E+00
          4   -1    0    0  501    0  0.00000000000E+00  0.00000000000E+00  0.48443625732E+02  0.48464433084E+02  0.14200000000E+01 0. -1.
         -4   -1    0    0    0  501 -0.00000000000E+00 -0.00000000000E+00 -0.42620515504E+02  0.42644164218E+02  0.14200000000E+01 0.  1.
         23    2    1    2    0    0  0.00000000000E+00  0.00000000000E+00  0.58231102282E+01  0.91108597301E+02  0.90922317885E+02 0.  0.
        -11    1    3    3    0    0  0.22331102904E+02  0.37228389631E+02  0.16433119038E+02  0.46418515196E+02  0.51100000000E-03 0. -1.
         11    1    3    3    0    0 -0.22331102904E+02 -0.37228389631E+02 -0.10610008810E+02  0.44690082106E+02  0.51100000000E-03 0.  1.
<mgrwt>
<rscale>  0 0.90922318E+02</rscale>
<asrwt>0</asrwt>
<pdfrwt beam="1">  1        4 0.74562852E-02 0.90922318E+02</pdfrwt>
<pdfrwt beam="2">  1       -4 0.65604221E-02 0.90922318E+02</pdfrwt>
<totfact> 0.27226552E+04</totfact>
</mgrwt>
</event>
<event>
 5    1  0.1133829E+000  0.9188089E+02  0.7818608E-02  0.1298360E+00
          4   -1    0    0  501    0  0.00000000000E+00  0.00000000000E+00  0.13020931250E+03  0.13021705519E+03  0.14200000000E+01 0. -1.
         -4   -1    0    0    0  501 -0.00000000000E+00 -0.00000000000E+00 -0.16169362985E+02  0.16231595712E+02  0.14200000000E+01 0.  1.
         23    2    1    2    0    0  0.00000000000E+00  0.00000000000E+00  0.11403994952E+03  0.14644865090E+03  0.91880886288E+02 0.  0.
        -11    1    3    3    0    0 -0.16014860984E+02 -0.36788630883E+02  0.21356371505E+02  0.45452983826E+02  0.51100000000E-03 0.  1.
         11    1    3    3    0    0  0.16014860984E+02  0.36788630883E+02  0.92683578012E+02  0.10099566708E+03  0.51100000000E-03 0. -1.
<mgrwt>
<rscale>  0 0.91880886E+02</rscale>
<asrwt>0</asrwt>
<pdfrwt beam="1">  1        4 0.20037584E-01 0.91880886E+02</pdfrwt>
<pdfrwt beam="2">  1       -4 0.24929771E-02 0.91880886E+02</pdfrwt>
<totfact> 0.23362641E+04</totfact>
</mgrwt>
</event>
<event>
 5    1  0.1133829E+000  0.9508470E+02  0.7818608E-02  0.1290985E+00
         -4   -1    0    0    0  501 -0.00000000000E+00  0.00000000000E+00  0.14572106618E+03  0.14572798471E+03  0.14200000000E+01 0.  1.
          4   -1    0    0  501    0  0.00000000000E+00 -0.00000000000E+00 -0.15471166257E+02  0.15536195974E+02  0.14200000000E+01 0. -1.
         23    2    1    2    0    0  0.00000000000E+00  0.00000000000E+00  0.13024989992E+03  0.16126418069E+03  0.95084696681E+02 0.  0.
        -11    1    3    3    0    0  0.22780314472E+02  0.19190792851E+02  0.12796981151E+03  0.13139064623E+03  0.51100000000E-03 0.  1.
         11    1    3    3    0    0 -0.22780314472E+02 -0.19190792851E+02  0.22800884119E+01  0.29873534460E+02  0.51100000000E-03 0. -1.
<mgrwt>
<rscale>  0 0.95084697E+02</rscale>
<asrwt>0</asrwt>
<pdfrwt beam="2">  1        4 0.23857139E-02 0.95084697E+02</pdfrwt>
<pdfrwt beam="1">  1       -4 0.22424160E-01 0.95084697E+02</pdfrwt>
<totfact> 0.20643620E+04</totfact>
</mgrwt>
</event>
<event>
 5    1  0.1133829E+000  0.8764522E+02  0.7818608E-02  0.1308656E+00
         -4   -1    0    0    0  501 -0.00000000000E+00  0.00000000000E+00  0.25870038047E+02  0.25908980461E+02  0.14200000000E+01 0.  1.
          4   -1    0    0  501    0  0.00000000000E+00 -0.00000000000E+00 -0.74131839971E+02  0.74145438818E+02  0.14200000000E+01 0. -1.
         23    2    1    2    0    0  0.00000000000E+00  0.00000000000E+00 -0.48261801925E+02  0.10005441928E+03  0.87645224013E+02 0.  0.
        -11    1    3    3    0    0 -0.15173733156E+02 -0.92516488069E+01 -0.69859672903E+02  0.72084735430E+02  0.51100000000E-03 0. -1.
         11    1    3    3    0    0  0.15173733156E+02  0.92516488069E+01  0.21597870979E+02  0.27969683849E+02  0.51100000000E-03 0.  1.
<mgrwt>
<rscale>  0 0.87645224E+02</rscale>
<asrwt>0</asrwt>
<pdfrwt beam="2">  1        4 0.11408940E-01 0.87645224E+02</pdfrwt>
<pdfrwt beam="1">  1       -4 0.39840475E-02 0.87645224E+02</pdfrwt>
<totfact> 0.29430079E+04</totfact>
</mgrwt>
</event>
<event>
 5    1  0.1133829E+000  0.9293998E+02  0.7818608E-02  0.1295884E+00
         -4   -1    0    0    0  501 -0.00000000000E+00  0.00000000000E+00  0.32769269125E+02  0.32800021326E+02  0.14200000000E+01 0.  1.
          4   -1    0    0  501    0  0.00000000000E+00 -0.00000000000E+00 -0.65829618101E+02  0.65844931615E+02  0.14200000000E+01 0. -1.
         23    2    1    2    0    0  0.00000000000E+00  0.00000000000E+00 -0.33060348976E+02  0.98644952941E+02  0.92939980990E+02 0.  0.
        -11    1    3    3    0    0 -0.31171941131E+02  0.33639593251E+02 -0.24483319979E+02  0.51987932305E+02  0.51100000000E-03 0.  1.
         11    1    3    3    0    0  0.31171941131E+02 -0.33639593251E+02 -0.85770289972E+01  0.46657020636E+02  0.51100000000E-03 0. -1.
<mgrwt>
<rscale>  0 0.92939981E+02</rscale>
<asrwt>0</asrwt>
<pdfrwt beam="2">  1        4 0.10131177E-01 0.92939981E+02</pdfrwt>
<pdfrwt beam="1">  1       -4 0.50449695E-02 0.92939981E+02</pdfrwt>
<totfact> 0.25195176E+04</totfact>
</mgrwt>
</event>
<event>
 5    1  0.1133829E+000  0.9040598E+02  0.7818608E-02  0.1301872E+00
          4   -1    0    0  501    0  0.00000000000E+00  0.00000000000E+00  0.14584106792E+03  0.14584798076E+03  0.14200000000E+01 0. -1.
         -4   -1    0    0    0  501 -0.00000000000E+00 -0.00000000000E+00 -0.13967283650E+02  0.14039281055E+02  0.14200000000E+01 0.  1.
         23    2    1    2    0    0  0.00000000000E+00  0.00000000000E+00  0.13187378427E+03  0.15988726182E+03  0.90405981623E+02 0.  0.
        -11    1    3    3    0    0  0.29763501852E+02 -0.22519910542E+02  0.11103651355E+03  0.11714145191E+03  0.51100000000E-03 0. -1.
         11    1    3    3    0    0 -0.29763501852E+02  0.22519910542E+02  0.20837270717E+02  0.42745809906E+02  0.51100000000E-03 0.  1.
<mgrwt>
<rscale>  0 0.90405982E+02</rscale>
<asrwt>0</asrwt>
<pdfrwt beam="1">  1        4 0.22443158E-01 0.90405982E+02</pdfrwt>
<pdfrwt beam="2">  1       -4 0.21548828E-02 0.90405982E+02</pdfrwt>
<totfact> 0.23720661E+04</totfact>
</mgrwt>
</event>
<event>
 5    1  0.1133829E+000  0.9188405E+02  0.7818608E-02  0.1298352E+00
         -4   -1    0    0    0  501 -0.00000000000E+00  0.00000000000E+00  0.39873172519E+02  0.39898449678E+02  0.14200000000E+01 0.  1.
          4   -1    0    0  501    0  0.00000000000E+00 -0.00000000000E+00 -0.52882999849E+02  0.52902061141E+02  0.14200000000E+01 0. -1.
         23    2    1    2    0    0  0.00000000000E+00  0.00000000000E+00 -0.13009827329E+02  0.92800510820E+02  0.91884053030E+02 0.  0.
        -11    1    3    3    0    0 -0.22176796246E+02  0.19337861918E+02  0.29130237756E+02  0.41404516025E+02  0.51100000000E-03 0.  1.
         11    1    3    3    0    0  0.22176796246E+02 -0.19337861918E+02 -0.42140065085E+02  0.51395994795E+02  0.51100000000E-03 0. -1.
<mgrwt>
<rscale>  0 0.91884053E+02</rscale>
<asrwt>0</asrwt>
<pdfrwt beam="2">  1        4 0.81392568E-02 0.91884053E+02</pdfrwt>
<pdfrwt beam="1">  1       -4 0.61377449E-02 0.91884053E+02</pdfrwt>
<totfact> 0.26352529E+04</totfact>
</mgrwt>
</event>
<event>
 5    1  0.1133829E+000  0.9200712E+02  0.7818608E-02  0.1298063E+00
         -4   -1    0    0    0  501 -0.00000000000E+00  0.00000000000E+00  0.20482010154E+02  0.20531174831E+02  0.14200000000E+01 0.  1.
          4   -1    0    0  501    0  0.00000000000E+00 -0.00000000000E+00 -0.10314823292E+03  0.10315800674E+03  0.14200000000E+01 0. -1.
         23    2    1    2    0    0  0.00000000000E+00  0.00000000000E+00 -0.82666222762E+02  0.12368918157E+03  0.92007115219E+02 0.  0.
        -11    1    3    3    0    0  0.19331161452E+02  0.14581095424E+02  0.11251611411E+02  0.26700204240E+02  0.51100000000E-03 0.  1.
         11    1    3    3    0    0 -0.19331161452E+02 -0.14581095424E+02 -0.93917834173E+02  0.96988977327E+02  0.51100000000E-03 0. -1.
<mgrwt>
<rscale>  0 0.92007115E+02</rscale>
<asrwt>0</asrwt>
<pdfrwt beam="2">  1        4 0.15873492E-01 0.92007115E+02</pdfrwt>
<pdfrwt beam="1">  1       -4 0.31556123E-02 0.92007115E+02</pdfrwt>
<totfact> 0.24457574E+04</totfact>
</mgrwt>
</event>
<event>
 5    1  0.1133829E+000  0.9163243E+02  0.7818608E-02  0.1298946E+00
          4   -1    0    0  501    0  0.00000000000E+00  0.00000000000E+00  0.16883186959E+02  0.16942797936E+02  0.14200000000E+01 0. -1.
         -4   -1    0    0    0  501 -0.00000000000E+00 -0.00000000000E+00 -0.12404951928E+03  0.12405764642E+03  0.14200000000E+01 0.  1.
         23    2    1    2    0    0  0.00000000000E+00  0.00000000000E+00 -0.10716633233E+03  0.14100044435E+03  0.91632431617E+02 0.  0.
        -11    1    3    3    0    0 -0.26529876364E+02  0.33348965515E+02 -0.27690892484E+02  0.50820993375E+02  0.51100000000E-03 0. -1.
         11    1    3    3    0    0  0.26529876364E+02 -0.33348965515E+02 -0.79475439841E+02  0.90179450979E+02  0.51100000000E-03 0.  1.
<mgrwt>
<rscale>  0 0.91632432E+02</rscale>
<asrwt>0</asrwt>
<pdfrwt beam="1">  1        4 0.26026241E-02 0.91632432E+02</pdfrwt>
<pdfrwt beam="2">  1       -4 0.19089751E-01 0.91632432E+02</pdfrwt>
<totfact> 0.23810531E+04</totfact>
</mgrwt>
</event>
<event>
 5    1  0.1133829E+000  0.9394463E+02  0.7818608E-02  0.1293571E+00
         -4   -1    0    0    0  501 -0.00000000000E+00  0.00000000000E+00  0.13725872675E+02  0.13799129708E+02  0.14200000000E+01 0.  1.
          4   -1    0    0  501    0  0.00000000000E+00 -0.00000000000E+00 -0.16024317768E+03  0.16024946924E+03  0.14200000000E+01 0. -1.
         23    2    1    2    0    0  0.00000000000E+00  0.00000000000E+00 -0.14651730500E+03  0.17404859895E+03  0.93944633327E+02 0.  0.
        -11    1    3    3    0    0  0.29694945286E+02  0.98777435501E+01 -0.13815611684E+03  0.14165617606E+03  0.51100000000E-03 0. -1.
         11    1    3    3    0    0 -0.29694945286E+02 -0.98777435501E+01 -0.83611881580E+01  0.32392422892E+02  0.51100000000E-03 0.  1.
<mgrwt>
<rscale>  0 0.93944633E+02</rscale>
<asrwt>0</asrwt>
<pdfrwt beam="2">  1        4 0.24658914E-01 0.93944633E+02</pdfrwt>
<pdfrwt beam="1">  1       -4 0.21177920E-02 0.93944633E+02</pdfrwt>
<totfact> 0.20777687E+04</totfact>
</mgrwt>
</event>
<event>
 4    1  0.1133829E+000  0.1649354E+03  0.7818608E-02  0.1183235E+00
          4   -1    0    0  501    0  0.00000000000E+00  0.00000000000E+00  0.13169944341E+03  0.13170709850E+03  0.14200000000E+01 0. -1.
         -4   -1    0    0    0  501 -0.00000000000E+00 -0.00000000000E+00 -0.51620771436E+02  0.51640298640E+02  0.14200000000E+01 0.  1.
        -11    1    1    2    0    0  0.25185711042E+02 -0.86192292426E+01 -0.46727122360E+02  0.53777645149E+02  0.51100000000E-03 0.  1.
         11    1    1    2    0    0 -0.25185711042E+02  0.86192292426E+01  0.12680579434E+03  0.12956975199E+03  0.51100000000E-03 0. -1.
<mgrwt>
<rscale>  0 0.16493536E+03</rscale>
<asrwt>0</asrwt>
<pdfrwt beam="1">  1        4 0.20263543E-01 0.16493536E+03</pdfrwt>
<pdfrwt beam="2">  1       -4 0.79437482E-02 0.16493536E+03</pdfrwt>
<totfact> 0.42114371E+03</totfact>
</mgrwt>
</event>
<event>
 5    1  0.1133829E+000  0.9368875E+02  0.7818608E-02  0.1294157E+00
         -4   -1    0    0    0  501 -0.00000000000E+00  0.00000000000E+00  0.39036504245E+02  0.39062322815E+02  0.14200000000E+01 0.  1.
          4   -1    0    0  501    0  0.00000000000E+00 -0.00000000000E+00 -0.56160548817E+02  0.56178498052E+02  0.14200000000E+01 0. -1.
         23    2    1    2    0    0  0.00000000000E+00  0.00000000000E+00 -0.17124044572E+02  0.95240820867E+02  0.93688745626E+02 0.  0.
        -11    1    3    3    0    0  0.25236074038E+01 -0.27771833160E+02  0.29701294687E+02  0.40740768497E+02  0.51100000000E-03 0.  1.
         11    1    3    3    0    0 -0.25236074038E+01  0.27771833160E+02 -0.46825339259E+02  0.54500052370E+02  0.51100000000E-03 0. -1.
<mgrwt>
<rscale>  0 0.93688746E+02</rscale>
<asrwt>0</asrwt>
<pdfrwt beam="2">  1        4 0.86434512E-02 0.93688746E+02</pdfrwt>
<pdfrwt beam="1">  1       -4 0.60089828E-02 0.93688746E+02</pdfrwt>
<totfact> 0.24848683E+04</totfact>
</mgrwt>
</event>
<event>
 5    1  0.1133829E+000  0.8715736E+02  0.7818608E-02  0.1309885E+00
         -4   -1    0    0    0  501 -0.00000000000E+00  0.00000000000E+00  0.86259703836E+02  0.86271391004E+02  0.14200000000E+01 0.  1.
          4   -1    0    0  501    0  0.00000000000E+00 -0.00000000000E+00 -0.21980000468E+02  0.22025821677E+02  0.14200000000E+01 0. -1.
         23    2    1    2    0    0  0.00000000000E+00  0.00000000000E+00  0.64279703368E+02  0.10829721268E+03  0.87157363484E+02 0.  0.
        -11    1    3    3    0    0 -0.13706830799E+02 -0.14064158787E+02  0.80478384475E+02  0.82839894621E+02  0.51100000000E-03 0.  1.
         11    1    3    3    0    0  0.13706830799E+02  0.14064158787E+02 -0.16198681107E+02  0.25457318060E+02  0.51100000000E-03 0. -1.
<mgrwt>
<rscale>  0 0.87157363E+02</rscale>
<asrwt>0</asrwt>
<pdfrwt beam="2">  1        4 0.33859623E-02 0.87157363E+02</pdfrwt>
<pdfrwt beam="1">  1       -4 0.13275147E-01 0.87157363E+02</pdfrwt>
<totfact> 0.29304677E+04</totfact>
</mgrwt>
</event>
<event>
 5    1  0.1133829E+000  0.8830751E+02  0.7818608E-02  0.1307003E+00
          4   -1    0    0  501    0  0.00000000000E+00  0.00000000000E+00  0.22451147436E+02  0.22496009006E+02  0.14200000000E+01 0. -1.
         -4   -1    0    0    0  501 -0.00000000000E+00 -0.00000000000E+00 -0.86698037037E+02  0.86709665125E+02  0.14200000000E+01 0.  1.
         23    2    1    2    0    0  0.00000000000E+00  0.00000000000E+00 -0.64246889601E+02  0.10920567413E+03  0.88307510660E+02 0.  0.
        -11    1    3    3    0    0  0.29588697959E+02  0.55573875535E+01  0.78182856788E+01  0.31104681232E+02  0.51100000000E-03 0. -1.
         11    1    3    3    0    0 -0.29588697959E+02 -0.55573875535E+01 -0.72065175280E+02  0.78100992898E+02  0.51100000000E-03 0.  1.
<mgrwt>
<rscale>  0 0.88307511E+02</rscale>
<asrwt>0</asrwt>
<pdfrwt beam="1">  1        4 0.34583681E-02 0.88307511E+02</pdfrwt>
<pdfrwt beam="2">  1       -4 0.13342505E-01 0.88307511E+02</pdfrwt>
<totfact> 0.28230837E+04</totfact>
</mgrwt>
</event>
<event>
 5    1  0.1133829E+000  0.9224940E+02  0.7818608E-02  0.1297494E+00
         -4   -1    0    0    0  501 -0.00000000000E+00  0.00000000000E+00  0.64772930090E+02  0.64788493365E+02  0.14200000000E+01 0.  1.
          4   -1    0    0  501    0  0.00000000000E+00 -0.00000000000E+00 -0.32810458537E+02  0.32841172169E+02  0.14200000000E+01 0. -1.
         23    2    1    2    0    0  0.00000000000E+00  0.00000000000E+00  0.31962471553E+02  0.97629665534E+02  0.92249401106E+02 0.  0.
        -11    1    3    3    0    0  0.26224397436E+02  0.36921018119E+02  0.25244277292E+02  0.51847412048E+02  0.51100000000E-03 0.  1.
         11    1    3    3    0    0 -0.26224397436E+02 -0.36921018119E+02  0.67181942607E+01  0.45782253486E+02  0.51100000000E-03 0. -1.
<mgrwt>
<rscale>  0 0.92249401E+02</rscale>
<asrwt>0</asrwt>
<pdfrwt beam="2">  1        4 0.50513226E-02 0.92249401E+02</pdfrwt>
<pdfrwt beam="1">  1       -4 0.99686259E-02 0.92249401E+02</pdfrwt>
<totfact> 0.25773166E+04</totfact>
</mgrwt>
</event>
<event>
 5    1  0.1133829E+000  0.9123500E+02  0.7818608E-02  0.1299888E+00
         -4   -1    0    0    0  501 -0.00000000000E+00  0.00000000000E+00  0.10032243207E+03  0.10033248117E+03  0.14200000000E+01 0.  1.
          4   -1    0    0  501    0  0.00000000000E+00 -0.00000000000E+00 -0.20707276238E+02  0.20755907332E+02  0.14200000000E+01 0. -1.
         23    2    1    2    0    0  0.00000000000E+00  0.00000000000E+00  0.79615155836E+02  0.12108838850E+03  0.91234997620E+02 0.  0.
        -11    1    3    3    0    0 -0.29210114519E+02  0.34813129006E+02  0.45078382663E+02  0.64009728364E+02  0.51100000000E-03 0. -1.
         11    1    3    3    0    0  0.29210114519E+02 -0.34813129006E+02  0.34536773173E+02  0.57078660136E+02  0.51100000000E-03 0.  1.
<mgrwt>
<rscale>  0 0.91234998E+02</rscale>
<asrwt>0</asrwt>
<pdfrwt beam="2">  1        4 0.31902487E-02 0.91234998E+02</pdfrwt>
<pdfrwt beam="1">  1       -4 0.15438734E-01 0.91234998E+02</pdfrwt>
<totfact> 0.25167667E+04</totfact>
</mgrwt>
</event>
<event>
 5    1  0.1133829E+000  0.8797492E+02  0.7818608E-02  0.1307831E+00
         -4   -1    0    0    0  501 -0.00000000000E+00  0.00000000000E+00  0.15909069617E+02  0.15972316553E+02  0.14200000000E+01 0. -1.
          4   -1    0    0  501    0  0.00000000000E+00 -0.00000000000E+00 -0.12131356013E+03  0.12132187054E+03  0.14200000000E+01 0.  1.
         23    2    1    2    0    0  0.00000000000E+00  0.00000000000E+00 -0.10540449052E+03  0.13729418710E+03  0.87974923640E+02 0.  0.
        -11    1    3    3    0    0  0.29490385588E+02  0.38655310565E+00 -0.10363312906E+03  0.10774812159E+03  0.51100000000E-03 0.  1.
         11    1    3    3    0    0 -0.29490385588E+02 -0.38655310565E+00 -0.17713614503E+01  0.29546065509E+02  0.51100000000E-03 0. -1.
<mgrwt>
<rscale>  0 0.87974924E+02</rscale>
<asrwt>0</asrwt>
<pdfrwt beam="2">  1        4 0.18669128E-01 0.87974924E+02</pdfrwt>
<pdfrwt beam="1">  1       -4 0.24530537E-02 0.87974924E+02</pdfrwt>
<totfact> 0.26776880E+04</totfact>
</mgrwt>
</event>
<event>
 5    1  0.1133829E+000  0.9656430E+02  0.7818608E-02  0.1287691E+00
          4   -1    0    0  501    0  0.00000000000E+00  0.00000000000E+00  0.17163848504E+03  0.17164435891E+03  0.14200000000E+01 0. -1.
         -4   -1    0    0    0  501 -0.00000000000E+00 -0.00000000000E+00 -0.13538597403E+02  0.13612862287E+02  0.14200000000E+01 0.  1.
         23    2    1    2    0    0  0.00000000000E+00  0.00000000000E+00  0.15809988764E+03  0.18525722120E+03  0.96564297420E+02 0.  0.
        -11    1    3    3    0    0  0.36385760552E+02  0.19326573678E+02  0.30754153633E+02  0.51412624783E+02  0.51100000000E-03 0.  1.
         11    1    3    3    0    0 -0.36385760552E+02 -0.19326573678E+02  0.12734573400E+03  0.13384459642E+03  0.51100000000E-03 0. -1.
<mgrwt>
<rscale>  0 0.96564297E+02</rscale>
<asrwt>0</asrwt>
<pdfrwt beam="1">  1        4 0.26412084E-01 0.96564297E+02</pdfrwt>
<pdfrwt beam="2">  1       -4 0.20890257E-02 0.96564297E+02</pdfrwt>
<totfact> 0.18861700E+04</totfact>
</mgrwt>
</event>
<event>
 5    1  0.1133829E+000  0.9107902E+02  0.7818608E-02  0.1300260E+00
         -4   -1    0    0    0  501 -0.00000000000E+00  0.00000000000E+00  0.98634183382E+02  0.98644404461E+02  0.14200000000E+01 0.  1.
          4   -1    0    0  501    0  0.00000000000E+00 -0.00000000000E+00 -0.20990339352E+02  0.21038316142E+02  0.14200000000E+01 0. -1.
         23    2    1    2    0    0  0.00000000000E+00  0.00000000000E+00  0.77643844030E+02  0.11968272060E+03  0.91079015669E+02 0.  0.
        -11    1    3    3    0    0 -0.45068663258E+02  0.65119411976E+01  0.39488067555E+02  0.60273520434E+02  0.51100000000E-03 0.  1.
         11    1    3    3    0    0  0.45068663258E+02 -0.65119411976E+01  0.38155776475E+02  0.59409200169E+02  0.51100000000E-03 0. -1.
<mgrwt>
<rscale>  0 0.91079016E+02</rscale>
<asrwt>0</asrwt>
<pdfrwt beam="2">  1        4 0.32337597E-02 0.91079016E+02</pdfrwt>
<pdfrwt beam="1">  1       -4 0.15178967E-01 0.91079016E+02</pdfrwt>
<totfact> 0.25364310E+04</totfact>
</mgrwt>
</event>
<event>
 5    1  0.1133829E+000  0.9001546E+02  0.7818608E-02  0.1302814E+00
         -4   -1    0    0    0  501 -0.00000000000E+00  0.00000000000E+00  0.15428732673E+03  0.15429386115E+03  0.14200000000E+01 0.  1.
          4   -1    0    0  501    0  0.00000000000E+00 -0.00000000000E+00 -0.13084144321E+02  0.13160973848E+02  0.14200000000E+01 0. -1.
         23    2    1    2    0    0  0.00000000000E+00  0.00000000000E+00  0.14120318241E+03  0.16745483500E+03  0.90015460021E+02 0.  0.
        -11    1    3    3    0    0 -0.38790333189E+02 -0.71197849500E+01  0.11094520136E+03  0.11774641817E+03  0.51100000000E-03 0.  1.
         11    1    3    3    0    0  0.38790333189E+02  0.71197849500E+01  0.30257981053E+02  0.49708416836E+02  0.51100000000E-03 0. -1.
<mgrwt>
<rscale>  0 0.90015460E+02</rscale>
<asrwt>0</asrwt>
<pdfrwt beam="2">  1        4 0.20193578E-02 0.90015460E+02</pdfrwt>
<pdfrwt beam="1">  1       -4 0.23742925E-01 0.90015460E+02</pdfrwt>
<totfact> 0.23624008E+04</totfact>
</mgrwt>
</event>
<event>
 5    1  0.1133829E+000  0.8967111E+02  0.7818608E-02  0.1303650E+00
         -4   -1    0    0    0  501 -0.00000000000E+00  0.00000000000E+00  0.31311688672E+02  0.31343870971E+02  0.14200000000E+01 0.  1.
          4   -1    0    0  501    0  0.00000000000E+00 -0.00000000000E+00 -0.64127508518E+02  0.64143228393E+02  0.14200000000E+01 0. -1.
         23    2    1    2    0    0  0.00000000000E+00  0.00000000000E+00 -0.32815819847E+02  0.95487099365E+02  0.89671110804E+02 0.  0.
        -11    1    3    3    0    0 -0.17091210008E+02 -0.52087073379E+01 -0.60196632653E+02  0.62792313819E+02  0.51100000000E-03 0. -1.
         11    1    3    3    0    0  0.17091210008E+02  0.52087073379E+01  0.27380812807E+02  0.32694785546E+02  0.51100000000E-03 0.  1.
<mgrwt>
<rscale>  0 0.89671111E+02</rscale>
<asrwt>0</asrwt>
<pdfrwt beam="2">  1        4 0.98694553E-02 0.89671111E+02</pdfrwt>
<pdfrwt beam="1">  1       -4 0.48208677E-02 0.89671111E+02</pdfrwt>
<totfact> 0.27972620E+04</totfact>
</mgrwt>
</event>
<event>
 5    1  0.1133829E+000  0.9035179E+02  0.7818608E-02  0.1302002E+00
          4   -1    0    0  501    0  0.00000000000E+00  0.00000000000E+00  0.14458927656E+03  0.14459624925E+03  0.14200000000E+01 0. -1.
         -4   -1    0    0    0  501 -0.00000000000E+00 -0.00000000000E+00 -0.14071841335E+02  0.14143306493E+02  0.14200000000E+01 0.  1.
         23    2    1    2    0    0  0.00000000000E+00  0.00000000000E+00  0.13051743523E+03  0.15873955574E+03  0.90351788354E+02 0.  0.
        -11    1    3    3    0    0  0.54602422279E+01 -0.43736393652E+02  0.82666720498E+02  0.93682832221E+02  0.51100000000E-03 0. -1.
         11    1    3    3    0    0 -0.54602422279E+01  0.43736393652E+02  0.47850714729E+02  0.65056723520E+02  0.51100000000E-03 0.  1.
<mgrwt>
<rscale>  0 0.90351788E+02</rscale>
<asrwt>0</asrwt>
<pdfrwt beam="1">  1        4 0.22250537E-01 0.90351788E+02</pdfrwt>
<pdfrwt beam="2">  1       -4 0.21709324E-02 0.90351788E+02</pdfrwt>
<totfact> 0.23815773E+04</totfact>
</mgrwt>
</event>
<event>
 5    1  0.1133829E+000  0.1012719E+03  0.7818608E-02  0.1277644E+00
         -4   -1    0    0    0  501 -0.00000000000E+00  0.00000000000E+00  0.13436484193E+03  0.13437234518E+03  0.14200000000E+01 0.  1.
          4   -1    0    0  501    0  0.00000000000E+00 -0.00000000000E+00 -0.19047897791E+02  0.19100754181E+02  0.14200000000E+01 0. -1.
         23    2    1    2    0    0  0.00000000000E+00  0.00000000000E+00  0.11531694414E+03  0.15347309936E+03  0.10127188464E+03 0.  0.
        -11    1    3    3    0    0  0.31475893497E+02  0.14919155069E+00  0.11776774655E+03  0.12190158431E+03  0.51100000000E-03 0.  1.
         11    1    3    3    0    0 -0.31475893497E+02 -0.14919155069E+00 -0.24508024085E+01  0.31571515045E+02  0.51100000000E-03 0. -1.
<mgrwt>
<rscale>  0 0.10127188E+03</rscale>
<asrwt>0</asrwt>
<pdfrwt beam="2">  1        4 0.29350889E-02 0.10127188E+03</pdfrwt>
<pdfrwt beam="1">  1       -4 0.20676157E-01 0.10127188E+03</pdfrwt>
<totfact> 0.17675485E+04</totfact>
</mgrwt>
</event>
<event>
 5    1  0.1133829E+000  0.6662030E+02  0.7818608E-02  0.1371978E+00
          4   -1    0    0  501    0  0.00000000000E+00  0.00000000000E+00  0.66906948770E+02  0.66922015762E+02  0.14200000000E+01 0.  1.
         -4   -1    0    0    0  501 -0.00000000000E+00 -0.00000000000E+00 -0.16536354248E+02  0.16597210965E+02  0.14200000000E+01 0. -1.
         23    2    1    2    0    0  0.00000000000E+00  0.00000000000E+00  0.50370594522E+02  0.83519226728E+02  0.66620300515E+02 0.  0.
        -11    1    3    3    0    0  0.29970831040E+02  0.11937995236E+02  0.14786741057E+02  0.35488225580E+02  0.51100000000E-03 0. -1.
         11    1    3    3    0    0 -0.29970831040E+02 -0.11937995236E+02  0.35583853465E+02  0.48031001147E+02  0.51100000000E-03 0.  1.
<mgrwt>
<rscale>  0 0.66620301E+02</rscale>
<asrwt>0</asrwt>
<pdfrwt beam="1">  1        4 0.10299217E-01 0.66620301E+02</pdfrwt>
<pdfrwt beam="2">  1       -4 0.25498948E-02 0.66620301E+02</pdfrwt>
<totfact> 0.63284460E+04</totfact>
</mgrwt>
</event>
<event>
 5    1  0.1133829E+000  0.9459814E+02  0.7818608E-02  0.1292084E+00
          4   -1    0    0  501    0  0.00000000000E+00  0.00000000000E+00  0.81890831334E+02  0.81903141921E+02  0.14200000000E+01 0. -1.
         -4   -1    0    0    0  501 -0.00000000000E+00 -0.00000000000E+00 -0.27286493330E+02  0.27323417031E+02  0.14200000000E+01 0.  1.
         23    2    1    2    0    0  0.00000000000E+00  0.00000000000E+00  0.54604338004E+02  0.10922655895E+03  0.94598136619E+02 0.  0.
        -11    1    3    3    0    0  0.46279806729E+02  0.45875240094E+00  0.16038036416E+02  0.48982135284E+02  0.51100000000E-03 0.  1.
         11    1    3    3    0    0 -0.46279806729E+02 -0.45875240094E+00  0.38566301588E+02  0.60244423668E+02  0.51100000000E-03 0. -1.
<mgrwt>
<rscale>  0 0.94598137E+02</rscale>
<asrwt>0</asrwt>
<pdfrwt beam="1">  1        4 0.12602377E-01 0.94598137E+02</pdfrwt>
<pdfrwt beam="2">  1       -4 0.42017093E-02 0.94598137E+02</pdfrwt>
<totfact> 0.23431746E+04</totfact>
</mgrwt>
</event>
<event>
 5    1  0.1133829E+000  0.9179948E+02  0.7818608E-02  0.1298552E+00
         -4   -1    0    0    0  501 -0.00000000000E+00  0.00000000000E+00  0.85255114679E+02  0.85266939542E+02  0.14200000000E+01 0.  1.
          4   -1    0    0  501    0  0.00000000000E+00 -0.00000000000E+00 -0.24677601226E+02  0.24718422326E+02  0.14200000000E+01 0. -1.
         23    2    1    2    0    0  0.00000000000E+00  0.00000000000E+00  0.60577513453E+02  0.10998536187E+03  0.91799480876E+02 0.  0.
        -11    1    3    3    0    0  0.34831701310E+02  0.16680538933E+02  0.60007986344E+02  0.71361377653E+02  0.51100000000E-03 0.  1.
         11    1    3    3    0    0 -0.34831701310E+02 -0.16680538933E+02  0.56952710930E+00  0.38623984215E+02  0.51100000000E-03 0. -1.
<mgrwt>
<rscale>  0 0.91799481E+02</rscale>
<asrwt>0</asrwt>
<pdfrwt beam="2">  1        4 0.38006038E-02 0.91799481E+02</pdfrwt>
<pdfrwt beam="1">  1       -4 0.13120221E-01 0.91799481E+02</pdfrwt>
<totfact> 0.25380818E+04</totfact>
</mgrwt>
</event>
<event>
 5    1  0.1133829E+000  0.8720406E+02  0.7818608E-02  0.1309767E+00
         -4   -1    0    0    0  501 -0.00000000000E+00  0.00000000000E+00  0.67587267306E+01  0.69062860510E+01  0.14200000000E+01 0.  1.
          4   -1    0    0  501    0  0.00000000000E+00 -0.00000000000E+00 -0.27809944808E+03  0.27810307338E+03  0.14200000000E+01 0. -1.
         23    2    1    2    0    0  0.00000000000E+00  0.00000000000E+00 -0.27134072135E+03  0.28500935943E+03  0.87204058965E+02 0.  0.
        -11    1    3    3    0    0  0.44490621671E+01 -0.43196392295E+02 -0.12283856812E+03  0.13028828144E+03  0.51100000000E-03 0. -1.
         11    1    3    3    0    0 -0.44490621671E+01  0.43196392295E+02 -0.14850215323E+03  0.15472107799E+03  0.51100000000E-03 0.  1.
<mgrwt>
<rscale>  0 0.87204059E+02</rscale>
<asrwt>0</asrwt>
<pdfrwt beam="2">  1        4 0.42796151E-01 0.87204059E+02</pdfrwt>
<pdfrwt beam="1">  1       -4 0.10514339E-02 0.87204059E+02</pdfrwt>
<totfact> 0.20577523E+04</totfact>
</mgrwt>
</event>
<event>
 5    1  0.1133829E+000  0.9136334E+02  0.7818608E-02  0.1299583E+00
         -4   -1    0    0    0  501 -0.00000000000E+00  0.00000000000E+00  0.19408411543E+02  0.19460288760E+02  0.14200000000E+01 0.  1.
          4   -1    0    0  501    0  0.00000000000E+00 -0.00000000000E+00 -0.10732107094E+03  0.10733046477E+03  0.14200000000E+01 0. -1.
         23    2    1    2    0    0  0.00000000000E+00  0.00000000000E+00 -0.87912659402E+02  0.12679075353E+03  0.91363337827E+02 0.  0.
        -11    1    3    3    0    0 -0.36649104019E+02 -0.13019698610E+02 -0.10703653226E+02  0.40339032833E+02  0.51100000000E-03 0.  1.
         11    1    3    3    0    0  0.36649104019E+02  0.13019698610E+02 -0.77209006176E+02  0.86451720701E+02  0.51100000000E-03 0. -1.
<mgrwt>
<rscale>  0 0.91363338E+02</rscale>
<asrwt>0</asrwt>
<pdfrwt beam="2">  1        4 0.16515647E-01 0.91363338E+02</pdfrwt>
<pdfrwt beam="1">  1       -4 0.29906227E-02 0.91363338E+02</pdfrwt>
<totfact> 0.24756160E+04</totfact>
</mgrwt>
</event>
<event>
 5    1  0.1133829E+000  0.9163087E+02  0.7818608E-02  0.1298950E+00
         -4   -1    0    0    0  501 -0.00000000000E+00  0.00000000000E+00  0.45884736609E+02  0.45906703799E+02  0.14200000000E+01 0.  1.
          4   -1    0    0  501    0  0.00000000000E+00 -0.00000000000E+00 -0.45702290636E+02  0.45724345478E+02  0.14200000000E+01 0. -1.
         23    2    1    2    0    0  0.00000000000E+00  0.00000000000E+00  0.18244597309E+00  0.91631049277E+02  0.91630867643E+02 0.  0.
        -11    1    3    3    0    0 -0.66413525439E+01  0.39811300109E+02  0.21770906088E+02  0.45858690911E+02  0.51100000000E-03 0.  1.
         11    1    3    3    0    0  0.66413525439E+01 -0.39811300109E+02 -0.21588460115E+02  0.45772358366E+02  0.51100000000E-03 0. -1.
<mgrwt>
<rscale>  0 0.91630868E+02</rscale>
<asrwt>0</asrwt>
<pdfrwt beam="2">  1        4 0.70345079E-02 0.91630868E+02</pdfrwt>
<pdfrwt beam="1">  1       -4 0.70625766E-02 0.91630868E+02</pdfrwt>
<totfact> 0.26624628E+04</totfact>
</mgrwt>
</event>
<event>
 5    1  0.1133829E+000  0.9283861E+02  0.7818608E-02  0.1296120E+00
          4   -1    0    0  501    0  0.00000000000E+00  0.00000000000E+00  0.25970747950E+03  0.25971136153E+03  0.14200000000E+01 0. -1.
         -4   -1    0    0    0  501 -0.00000000000E+00 -0.00000000000E+00 -0.82321112035E+01  0.83536851070E+01  0.14200000000E+01 0.  1.
         23    2    1    2    0    0  0.00000000000E+00  0.00000000000E+00  0.25147536830E+03  0.26806504664E+03  0.92838614644E+02 0.  0.
        -11    1    3    3    0    0 -0.80259281235E+01 -0.35314096859E+02  0.20958516227E+03  0.21269095233E+03  0.51100000000E-03 0. -1.
         11    1    3    3    0    0  0.80259281235E+01  0.35314096859E+02  0.41890206029E+02  0.55374094310E+02  0.51100000000E-03 0.  1.
<mgrwt>
<rscale>  0 0.92838615E+02</rscale>
<asrwt>0</asrwt>
<pdfrwt beam="1">  1        4 0.39964645E-01 0.92838615E+02</pdfrwt>
<pdfrwt beam="2">  1       -4 0.12761292E-02 0.92838615E+02</pdfrwt>
<totfact> 0.17953942E+04</totfact>
</mgrwt>
</event>
<event>
 5    1  0.1133829E+000  0.8898718E+02  0.7818608E-02  0.1305323E+00
          4   -1    0    0  501    0  0.00000000000E+00  0.00000000000E+00  0.38543212501E+02  0.38569361285E+02  0.14200000000E+01 0. -1.
         -4   -1    0    0    0  501 -0.00000000000E+00 -0.00000000000E+00 -0.51309211928E+02  0.51328857659E+02  0.14200000000E+01 0.  1.
         23    2    1    2    0    0  0.00000000000E+00  0.00000000000E+00 -0.12765999426E+02  0.89898218944E+02  0.88987184628E+02 0.  0.
        -11    1    3    3    0    0  0.38206540519E+02  0.22745733750E+02 -0.47629566652E+01  0.44719055208E+02  0.51100000000E-03 0. -1.
         11    1    3    3    0    0 -0.38206540519E+02 -0.22745733750E+02 -0.80030427612E+01  0.45179163736E+02  0.51100000000E-03 0.  1.
<mgrwt>
<rscale>  0 0.88987185E+02</rscale>
<asrwt>0</asrwt>
<pdfrwt beam="1">  1        4 0.59332476E-02 0.88987185E+02</pdfrwt>
<pdfrwt beam="2">  1       -4 0.78972476E-02 0.88987185E+02</pdfrwt>
<totfact> 0.28941533E+04</totfact>
</mgrwt>
</event>
<event>
 5    1  0.1133829E+000  0.9093983E+02  0.7818608E-02  0.1300592E+00
          4   -1    0    0  501    0  0.00000000000E+00  0.00000000000E+00  0.20347233931E+02  0.20396723478E+02  0.14200000000E+01 0. -1.
         -4   -1    0    0    0  501 -0.00000000000E+00 -0.00000000000E+00 -0.10143361520E+03  0.10144355422E+03  0.14200000000E+01 0.  1.
         23    2    1    2    0    0  0.00000000000E+00  0.00000000000E+00 -0.81086381269E+02  0.12184027770E+03  0.90939826490E+02 0.  0.
        -11    1    3    3    0    0  0.56341393586E+01 -0.44988755091E+02 -0.35944489396E+02  0.57859639898E+02  0.51100000000E-03 0. -1.
         11    1    3    3    0    0 -0.56341393586E+01  0.44988755091E+02 -0.45141891873E+02  0.63980637798E+02  0.51100000000E-03 0.  1.
<mgrwt>
<rscale>  0 0.90939826E+02</rscale>
<asrwt>0</asrwt>
<pdfrwt beam="1">  1        4 0.31349152E-02 0.90939826E+02</pdfrwt>
<pdfrwt beam="2">  1       -4 0.15609743E-01 0.90939826E+02</pdfrwt>
<totfact> 0.25346406E+04</totfact>
</mgrwt>
</event>
<event>
 5    1  0.1133829E+000  0.8813809E+02  0.7818608E-02  0.1307424E+00
         -4   -1    0    0    0  501 -0.00000000000E+00  0.00000000000E+00  0.22233423757E+02  0.22278723751E+02  0.14200000000E+01 0.  1.
          4   -1    0    0  501    0  0.00000000000E+00 -0.00000000000E+00 -0.87209619638E+02  0.87221179523E+02  0.14200000000E+01 0. -1.
         23    2    1    2    0    0  0.00000000000E+00  0.00000000000E+00 -0.64976195880E+02  0.10949990327E+03  0.88138089303E+02 0.  0.
        -11    1    3    3    0    0  0.23975080141E+02  0.33049827277E+02 -0.11886319081E+02  0.42525052997E+02  0.51100000000E-03 0.  1.
         11    1    3    3    0    0 -0.23975080141E+02 -0.33049827277E+02 -0.53089876799E+02  0.66974850277E+02  0.51100000000E-03 0. -1.
<mgrwt>
<rscale>  0 0.88138089E+02</rscale>
<asrwt>0</asrwt>
<pdfrwt beam="2">  1        4 0.13421238E-01 0.88138089E+02</pdfrwt>
<pdfrwt beam="1">  1       -4 0.34249006E-02 0.88138089E+02</pdfrwt>
<totfact> 0.28357691E+04</totfact>
</mgrwt>
</event>
<event>
 5    1  0.1133829E+000  0.8807123E+02  0.7818608E-02  0.1307591E+00
          4   -1    0    0  501    0  0.00000000000E+00  0.00000000000E+00  0.26524268167E+02  0.26562251444E+02  0.14200000000E+01 0. -1.
         -4   -1    0    0    0  501 -0.00000000000E+00 -0.00000000000E+00 -0.73010772723E+02  0.73024580338E+02  0.14200000000E+01 0.  1.
         23    2    1    2    0    0  0.00000000000E+00  0.00000000000E+00 -0.46486504556E+02  0.99586831783E+02  0.88071232299E+02 0.  0.
        -11    1    3    3    0    0  0.11869669558E+02  0.32134807794E+02 -0.54530615559E+02  0.64398159607E+02  0.51100000000E-03 0.  1.
         11    1    3    3    0    0 -0.11869669558E+02 -0.32134807794E+02  0.80441110023E+01  0.35188672175E+02  0.51100000000E-03 0. -1.
<mgrwt>
<rscale>  0 0.88071232E+02</rscale>
<asrwt>0</asrwt>
<pdfrwt beam="1">  1        4 0.40846406E-02 0.88071232E+02</pdfrwt>
<pdfrwt beam="2">  1       -4 0.11236410E-01 0.88071232E+02</pdfrwt>
<totfact> 0.29080624E+04</totfact>
</mgrwt>
</event>
<event>
 5    1  0.1133829E+000  0.9058390E+02  0.7818608E-02  0.1301444E+00
         -4   -1    0    0    0  501 -0.00000000000E+00  0.00000000000E+00  0.16129772048E+03  0.16130397091E+03  0.14200000000E+01 0.  1.
          4   -1    0    0  501    0  0.00000000000E+00 -0.00000000000E+00 -0.12671697969E+02  0.12751012878E+02  0.14200000000E+01 0. -1.
         23    2    1    2    0    0  0.00000000000E+00  0.00000000000E+00  0.14862602251E+03  0.17405498379E+03  0.90583899313E+02 0.  0.
        -11    1    3    3    0    0 -0.23984108170E+02  0.32783195777E+02  0.11280906405E+03  0.11989937573E+03  0.51100000000E-03 0.  1.
         11    1    3    3    0    0  0.23984108170E+02 -0.32783195777E+02  0.35816958464E+02  0.54155608056E+02  0.51100000000E-03 0. -1.
<mgrwt>
<rscale>  0 0.90583899E+02</rscale>
<asrwt>0</asrwt>
<pdfrwt beam="2">  1        4 0.19560739E-02 0.90583899E+02</pdfrwt>
<pdfrwt beam="1">  1       -4 0.24821616E-01 0.90583899E+02</pdfrwt>
<totfact> 0.22917717E+04</totfact>
</mgrwt>
</event>
<event>
 5    1  0.1133829E+000  0.8995058E+02  0.7818608E-02  0.1302971E+00
          4   -1    0    0  501    0  0.00000000000E+00  0.00000000000E+00  0.38649762846E+02  0.38675839591E+02  0.14200000000E+01 0. -1.
         -4   -1    0    0    0  501 -0.00000000000E+00 -0.00000000000E+00 -0.52282697440E+02  0.52301977512E+02  0.14200000000E+01 0.  1.
         23    2    1    2    0    0  0.00000000000E+00  0.00000000000E+00 -0.13632934594E+02  0.90977817102E+02  0.89950576980E+02 0.  0.
        -11    1    3    3    0    0  0.26174016611E+02 -0.13648233990E+02 -0.41136606053E+02  0.50631746903E+02  0.51100000000E-03 0.  1.
         11    1    3    3    0    0 -0.26174016611E+02  0.13648233990E+02  0.27503671459E+02  0.40346070200E+02  0.51100000000E-03 0. -1.
<mgrwt>
<rscale>  0 0.89950577E+02</rscale>
<asrwt>0</asrwt>
<pdfrwt beam="1">  1        4 0.59496063E-02 0.89950577E+02</pdfrwt>
<pdfrwt beam="2">  1       -4 0.80469809E-02 0.89950577E+02</pdfrwt>
<totfact> 0.28038739E+04</totfact>
</mgrwt>
</event>
<event>
 5    1  0.1133829E+000  0.9149219E+02  0.7818608E-02  0.1299278E+00
          4   -1    0    0  501    0  0.00000000000E+00  0.00000000000E+00  0.23097118591E+02  0.23140727889E+02  0.14200000000E+01 0. -1.
         -4   -1    0    0    0  501 -0.00000000000E+00 -0.00000000000E+00 -0.90469951862E+02  0.90481095207E+02  0.14200000000E+01 0.  1.
         23    2    1    2    0    0  0.00000000000E+00  0.00000000000E+00 -0.67372833270E+02  0.11362182310E+03  0.91492185571E+02 0.  0.
        -11    1    3    3    0    0  0.70790875935E+01 -0.45129949023E+02 -0.30675229213E+02  0.55025407473E+02  0.51100000000E-03 0.  1.
         11    1    3    3    0    0 -0.70790875935E+01  0.45129949023E+02 -0.36697604058E+02  0.58596415623E+02  0.51100000000E-03 0. -1.
<mgrwt>
<rscale>  0 0.91492186E+02</rscale>
<asrwt>0</asrwt>
<pdfrwt beam="1">  1        4 0.35576147E-02 0.91492186E+02</pdfrwt>
<pdfrwt beam="2">  1       -4 0.13922666E-01 0.91492186E+02</pdfrwt>
<totfact> 0.25400802E+04</totfact>
</mgrwt>
</event>
<event>
 5    1  0.1133829E+000  0.9247661E+02  0.7818608E-02  0.1296963E+00
         -4   -1    0    0    0  501 -0.00000000000E+00  0.00000000000E+00  0.36187619505E+02  0.36215469146E+02  0.14200000000E+01 0.  1.
          4   -1    0    0  501    0  0.00000000000E+00 -0.00000000000E+00 -0.59021337873E+02  0.59038417359E+02  0.14200000000E+01 0. -1.
         23    2    1    2    0    0  0.00000000000E+00  0.00000000000E+00 -0.22833718367E+02  0.95253886505E+02  0.92476614340E+02 0.  0.
        -11    1    3    3    0    0  0.14046254697E+02  0.39152483557E+02  0.93828240047E+01  0.42640961835E+02  0.51100000000E-03 0.  1.
         11    1    3    3    0    0 -0.14046254697E+02 -0.39152483557E+02 -0.32216542372E+02  0.52612924670E+02  0.51100000000E-03 0. -1.
<mgrwt>
<rscale>  0 0.92476614E+02</rscale>
<asrwt>0</asrwt>
<pdfrwt beam="2">  1        4 0.90836619E-02 0.92476614E+02</pdfrwt>
<pdfrwt beam="1">  1       -4 0.55707822E-02 0.92476614E+02</pdfrwt>
<totfact> 0.25745267E+04</totfact>
</mgrwt>
</event>
<event>
 5    1  0.1133829E+000  0.5819133E+02  0.7818608E-02  0.1405583E+00
          4   -1    0    0  501    0  0.00000000000E+00  0.00000000000E+00  0.34817637355E+02  0.34846581913E+02  0.14200000000E+01 0.  1.
         -4   -1    0    0    0  501 -0.00000000000E+00 -0.00000000000E+00 -0.24254226423E+02  0.24295758876E+02  0.14200000000E+01 0. -1.
         23    2    1    2    0    0  0.00000000000E+00  0.00000000000E+00  0.10563410932E+02  0.59142340789E+02  0.58191329453E+02 0.  0.
        -11    1    3    3    0    0 -0.25115402319E+01 -0.28354071028E+02  0.11404825435E+02  0.30664820588E+02  0.51100000000E-03 0.  1.
         11    1    3    3    0    0  0.25115402319E+01  0.28354071028E+02 -0.84141450304E+00  0.28477520202E+02  0.51100000000E-03 0. -1.
<mgrwt>
<rscale>  0 0.58191329E+02</rscale>
<asrwt>0</asrwt>
<pdfrwt beam="1">  1        4 0.53619809E-02 0.58191329E+02</pdfrwt>
<pdfrwt beam="2">  1       -4 0.37368408E-02 0.58191329E+02</pdfrwt>
<totfact> 0.95746919E+04</totfact>
</mgrwt>
</event>
<event>
 5    1  0.1133829E+000  0.9198245E+02  0.7818608E-02  0.1298121E+00
          4   -1    0    0  501    0  0.00000000000E+00  0.00000000000E+00  0.19133034752E+02  0.19185656591E+02  0.14200000000E+01 0. -1.
         -4   -1    0    0    0  501 -0.00000000000E+00 -0.00000000000E+00 -0.11034286715E+03  0.11035200374E+03  0.14200000000E+01 0.  1.
         23    2    1    2    0    0  0.00000000000E+00  0.00000000000E+00 -0.91209832395E+02  0.12953766033E+03  0.91982454411E+02 0.  0.
        -11    1    3    3    0    0  0.22423819466E+01  0.18306866659E+02 -0.10493747637E+03  0.10654596938E+03  0.51100000000E-03 0.  1.
         11    1    3    3    0    0 -0.22423819466E+01 -0.18306866659E+02  0.13727643975E+02  0.22991690956E+02  0.51100000000E-03 0. -1.
<mgrwt>
<rscale>  0 0.91982454E+02</rscale>
<asrwt>0</asrwt>
<pdfrwt beam="1">  1        4 0.29482945E-02 0.91982454E+02</pdfrwt>
<pdfrwt beam="2">  1       -4 0.16980576E-01 0.91982454E+02</pdfrwt>
<totfact> 0.24161212E+04</totfact>
</mgrwt>
</event>
<event>
 5    1  0.1133829E+000  0.9127516E+02  0.7818608E-02  0.1299793E+00
          4   -1    0    0  501    0  0.00000000000E+00  0.00000000000E+00  0.64104933803E+02  0.64120659213E+02  0.14200000000E+01 0. -1.
         -4   -1    0    0    0  501 -0.00000000000E+00 -0.00000000000E+00 -0.32455069365E+02  0.32486118997E+02  0.14200000000E+01 0.  1.
         23    2    1    2    0    0  0.00000000000E+00  0.00000000000E+00  0.31649864438E+02  0.96606778210E+02  0.91275164624E+02 0.  0.
        -11    1    3    3    0    0  0.26030225404E+02 -0.24318873096E+02  0.46018618406E+02  0.58195304480E+02  0.51100000000E-03 0. -1.
         11    1    3    3    0    0 -0.26030225404E+02  0.24318873096E+02 -0.14368753968E+02  0.38411473730E+02  0.51100000000E-03 0.  1.
<mgrwt>
<rscale>  0 0.91275165E+02</rscale>
<asrwt>0</asrwt>
<pdfrwt beam="1">  1        4 0.98658955E-02 0.91275165E+02</pdfrwt>
<pdfrwt beam="2">  1       -4 0.49966857E-02 0.91275165E+02</pdfrwt>
<totfact> 0.26592076E+04</totfact>
</mgrwt>
</event>
<event>
 5    1  0.1133829E+000  0.9157128E+02  0.7818608E-02  0.1299091E+00
         -4   -1    0    0    0  501 -0.00000000000E+00  0.00000000000E+00  0.76859393071E+02  0.76872509412E+02  0.14200000000E+01 0.  1.
          4   -1    0    0  501    0  0.00000000000E+00 -0.00000000000E+00 -0.27240863716E+02  0.27277849181E+02  0.14200000000E+01 0. -1.
         23    2    1    2    0    0  0.00000000000E+00  0.00000000000E+00  0.49618529355E+02  0.10415035859E+03  0.91571276827E+02 0.  0.
        -11    1    3    3    0    0  0.32008020457E+02  0.17233291559E+02 -0.68501808627E+01  0.36992224719E+02  0.51100000000E-03 0. -1.
         11    1    3    3    0    0 -0.32008020457E+02 -0.17233291559E+02  0.56468710218E+02  0.67158133874E+02  0.51100000000E-03 0.  1.
<mgrwt>
<rscale>  0 0.91571277E+02</rscale>
<asrwt>0</asrwt>
<pdfrwt beam="2">  1        4 0.41947561E-02 0.91571277E+02</pdfrwt>
<pdfrwt beam="1">  1       -4 0.11828376E-01 0.91571277E+02</pdfrwt>
<totfact> 0.25898592E+04</totfact>
</mgrwt>
</event>
<event>
 5    1  0.1133829E+000  0.8373817E+02  0.7818608E-02  0.1318766E+00
          4   -1    0    0  501    0  0.00000000000E+00  0.00000000000E+00  0.81796178420E+02  0.81808503251E+02  0.14200000000E+01 0.  1.
         -4   -1    0    0    0  501 -0.00000000000E+00 -0.00000000000E+00 -0.21394091442E+02  0.21441164815E+02  0.14200000000E+01 0. -1.
         23    2    1    2    0    0  0.00000000000E+00  0.00000000000E+00  0.60402086979E+02  0.10324966807E+03  0.83738174355E+02 0.  0.
        -11    1    3    3    0    0 -0.25811769745E+02 -0.26149008242E+02  0.54953538221E+02  0.66105290655E+02  0.51100000000E-03 0.  1.
         11    1    3    3    0    0  0.25811769745E+02  0.26149008242E+02  0.54485487581E+01  0.37144377411E+02  0.51100000000E-03 0. -1.
<mgrwt>
<rscale>  0 0.83738174E+02</rscale>
<asrwt>0</asrwt>
<pdfrwt beam="1">  1        4 0.12588597E-01 0.83738174E+02</pdfrwt>
<pdfrwt beam="2">  1       -4 0.32959678E-02 0.83738174E+02</pdfrwt>
<totfact> 0.33009492E+04</totfact>
</mgrwt>
</event>
<event>
 5    1  0.1133829E+000  0.9157737E+02  0.7818608E-02  0.1299076E+00
         -4   -1    0    0    0  501 -0.00000000000E+00  0.00000000000E+00  0.60905298173E+01  0.62538750752E+01  0.14200000000E+01 0.  1.
          4   -1    0    0  501    0  0.00000000000E+00 -0.00000000000E+00 -0.33951997608E+03  0.33952294556E+03  0.14200000000E+01 0. -1.
         23    2    1    2    0    0  0.00000000000E+00  0.00000000000E+00 -0.33342944626E+03  0.34577682063E+03  0.91577366467E+02 0.  0.
        -11    1    3    3    0    0 -0.32941252704E+02 -0.29941633322E+02 -0.20720132059E+03  0.21192926836E+03  0.51100000000E-03 0. -1.
         11    1    3    3    0    0  0.32941252704E+02  0.29941633322E+02 -0.12622812568E+03  0.13384755227E+03  0.51100000000E-03 0.  1.
<mgrwt>
<rscale>  0 0.91577366E+02</rscale>
<asrwt>0</asrwt>
<pdfrwt beam="2">  1        4 0.52246622E-01 0.91577366E+02</pdfrwt>
<pdfrwt beam="1">  1       -4 0.94979829E-03 0.91577366E+02</pdfrwt>
<totfact> 0.16318301E+04</totfact>
</mgrwt>
</event>
<event>
 5    1  0.1133829E+000  0.9103965E+02  0.7818608E-02  0.1300353E+00
         -4   -1    0    0    0  501 -0.00000000000E+00  0.00000000000E+00  0.18250276138E+02  0.18305435781E+02  0.14200000000E+01 0.  1.
          4   -1    0    0  501    0  0.00000000000E+00 -0.00000000000E+00 -0.11330458917E+03  0.11331348695E+03  0.14200000000E+01 0. -1.
         23    2    1    2    0    0  0.00000000000E+00  0.00000000000E+00 -0.95054313027E+02  0.13161892274E+03  0.91039652883E+02 0.  0.
        -11    1    3    3    0    0  0.35072199703E+02 -0.91033851665E+01 -0.87360250259E+02  0.94576657475E+02  0.51100000000E-03 0. -1.
         11    1    3    3    0    0 -0.35072199703E+02  0.91033851665E+01 -0.76940627675E+01  0.37042265260E+02  0.51100000000E-03 0.  1.
<mgrwt>
<rscale>  0 0.91039653E+02</rscale>
<asrwt>0</asrwt>
<pdfrwt beam="2">  1        4 0.17436402E-01 0.91039653E+02</pdfrwt>
<pdfrwt beam="1">  1       -4 0.28126624E-02 0.91039653E+02</pdfrwt>
<totfact> 0.24730524E+04</totfact>
</mgrwt>
</event>
<event>
 5    1  0.1133829E+000  0.9163423E+02  0.7818608E-02  0.1298942E+00
          4   -1    0    0  501    0  0.00000000000E+00  0.00000000000E+00  0.45683169759E+02  0.45705233828E+02  0.14200000000E+01 0. -1.
         -4   -1    0    0    0  501 -0.00000000000E+00 -0.00000000000E+00 -0.45907315032E+02  0.45929271423E+02  0.14200000000E+01 0.  1.
         23    2    1    2    0    0  0.00000000000E+00  0.00000000000E+00 -0.22414527251E+00  0.91634505251E+02  0.91634231112E+02 0.  0.
        -11    1    3    3    0    0 -0.58728011357E+01 -0.95786947764E+01  0.44306152179E+02  0.45708602122E+02  0.51100000000E-03 0. -1.
         11    1    3    3    0    0  0.58728011357E+01  0.95786947764E+01 -0.44530297452E+02  0.45925903129E+02  0.51100000000E-03 0.  1.
<mgrwt>
<rscale>  0 0.91634231E+02</rscale>
<asrwt>0</asrwt>
<pdfrwt beam="1">  1        4 0.70315662E-02 0.91634231E+02</pdfrwt>
<pdfrwt beam="2">  1       -4 0.70660500E-02 0.91634231E+02</pdfrwt>
<totfact> 0.26621749E+04</totfact>
</mgrwt>
</event>
<event>
 5    1  0.1133829E+000  0.9056488E+02  0.7818608E-02  0.1301490E+00
         -4   -1    0    0    0  501 -0.00000000000E+00  0.00000000000E+00  0.18323577919E+02  0.18378517561E+02  0.14200000000E+01 0.  1.
          4   -1    0    0  501    0  0.00000000000E+00 -0.00000000000E+00 -0.11167798906E+03  0.11168701643E+03  0.14200000000E+01 0. -1.
         23    2    1    2    0    0  0.00000000000E+00  0.00000000000E+00 -0.93354411137E+02  0.13006553399E+03  0.90564877598E+02 0.  0.
        -11    1    3    3    0    0  0.16840667865E+02  0.29167380931E+02 -0.90146932880E+02  0.96233121701E+02  0.51100000000E-03 0. -1.
         11    1    3    3    0    0 -0.16840667865E+02 -0.29167380931E+02 -0.32074782572E+01  0.33832412293E+02  0.51100000000E-03 0.  1.
<mgrwt>
<rscale>  0 0.90564878E+02</rscale>
<asrwt>0</asrwt>
<pdfrwt beam="2">  1        4 0.17186149E-01 0.90564878E+02</pdfrwt>
<pdfrwt beam="1">  1       -4 0.28239326E-02 0.90564878E+02</pdfrwt>
<totfact> 0.25166584E+04</totfact>
</mgrwt>
</event>
<event>
 5    1  0.1133829E+000  0.9132822E+02  0.7818608E-02  0.1299667E+00
         -4   -1    0    0    0  501 -0.00000000000E+00  0.00000000000E+00  0.19736411945E+03  0.19736922771E+03  0.14200000000E+01 0.  1.
          4   -1    0    0  501    0  0.00000000000E+00 -0.00000000000E+00 -0.10512316721E+02  0.10607789725E+02  0.14200000000E+01 0. -1.
         23    2    1    2    0    0  0.00000000000E+00  0.00000000000E+00  0.18685180273E+03  0.20797701744E+03  0.91328219064E+02 0.  0.
        -11    1    3    3    0    0  0.42200380572E+02  0.95379459350E+01  0.12668981445E+03  0.13387364796E+03  0.51100000000E-03 0.  1.
         11    1    3    3    0    0 -0.42200380572E+02 -0.95379459350E+01  0.60161988284E+02  0.74103369476E+02  0.51100000000E-03 0. -1.
<mgrwt>
<rscale>  0 0.91328219E+02</rscale>
<asrwt>0</asrwt>
<pdfrwt beam="2">  1        4 0.16250165E-02 0.91328219E+02</pdfrwt>
<pdfrwt beam="1">  1       -4 0.30371447E-01 0.91328219E+02</pdfrwt>
<totfact> 0.20964120E+04</totfact>
</mgrwt>
</event>
<event>
 5    1  0.1133829E+000  0.9001237E+02  0.7818608E-02  0.1302822E+00
          4   -1    0    0  501    0  0.00000000000E+00  0.00000000000E+00  0.18928753774E+02  0.18981941930E+02  0.14200000000E+01 0. -1.
         -4   -1    0    0    0  501 -0.00000000000E+00 -0.00000000000E+00 -0.10680146699E+03  0.10681090652E+03  0.14200000000E+01 0.  1.
         23    2    1    2    0    0  0.00000000000E+00  0.00000000000E+00 -0.87872713213E+02  0.12579284845E+03  0.90012371331E+02 0.  0.
        -11    1    3    3    0    0 -0.14316148633E+02  0.35882893397E+02 -0.76200976938E+02  0.85434905260E+02  0.51100000000E-03 0.  1.
         11    1    3    3    0    0  0.14316148633E+02 -0.35882893397E+02 -0.11671736276E+02  0.40357943186E+02  0.51100000000E-03 0. -1.
<mgrwt>
<rscale>  0 0.90012371E+02</rscale>
<asrwt>0</asrwt>
<pdfrwt beam="1">  1        4 0.29169335E-02 0.90012371E+02</pdfrwt>
<pdfrwt beam="2">  1       -4 0.16435812E-01 0.90012371E+02</pdfrwt>
<totfact> 0.25827129E+04</totfact>
</mgrwt>
</event>
<event>
 5    1  0.1133829E+000  0.8994632E+02  0.7818608E-02  0.1302982E+00
          4   -1    0    0  501    0  0.00000000000E+00  0.00000000000E+00  0.11747895782E+02  0.11833404214E+02  0.14200000000E+01 0. -1.
         -4   -1    0    0    0  501 -0.00000000000E+00 -0.00000000000E+00 -0.17145299728E+03  0.17145887751E+03  0.14200000000E+01 0.  1.
         23    2    1    2    0    0  0.00000000000E+00  0.00000000000E+00 -0.15970510150E+03  0.18329228172E+03  0.89946323407E+02 0.  0.
        -11    1    3    3    0    0  0.14129734549E+02 -0.26601525539E+02 -0.11798248841E+02  0.32349485860E+02  0.51100000000E-03 0. -1.
         11    1    3    3    0    0 -0.14129734549E+02  0.26601525539E+02 -0.14790685266E+03  0.15094279586E+03  0.51100000000E-03 0.  1.
<mgrwt>
<rscale>  0 0.89946323E+02</rscale>
<asrwt>0</asrwt>
<pdfrwt beam="1">  1        4 0.18143986E-02 0.89946323E+02</pdfrwt>
<pdfrwt beam="2">  1       -4 0.26384412E-01 0.89946323E+02</pdfrwt>
<totfact> 0.22922775E+04</totfact>
</mgrwt>
</event>
<event>
 5    1  0.1133829E+000  0.9467474E+02  0.7818608E-02  0.1291910E+00
         -4   -1    0    0    0  501 -0.00000000000E+00  0.00000000000E+00  0.20335701231E+03  0.20336197003E+03  0.14200000000E+01 0.  1.
          4   -1    0    0  501    0  0.00000000000E+00 -0.00000000000E+00 -0.10968313091E+02  0.11059850454E+02  0.14200000000E+01 0. -1.
         23    2    1    2    0    0  0.00000000000E+00  0.00000000000E+00  0.19238869922E+03  0.21442182048E+03  0.94674735349E+02 0.  0.
        -11    1    3    3    0    0  0.36645925289E+02 -0.53371116577E+01  0.16297476823E+03  0.16712924244E+03  0.51100000000E-03 0.  1.
         11    1    3    3    0    0 -0.36645925289E+02  0.53371116577E+01  0.29413930989E+02  0.47292578039E+02  0.51100000000E-03 0. -1.
<mgrwt>
<rscale>  0 0.94674735E+02</rscale>
<asrwt>0</asrwt>
<pdfrwt beam="2">  1        4 0.16948554E-02 0.94674735E+02</pdfrwt>
<pdfrwt beam="1">  1       -4 0.31293118E-01 0.94674735E+02</pdfrwt>
<totfact> 0.18799016E+04</totfact>
</mgrwt>
</event>
<event>
 5    1  0.1133829E+000  0.1101690E+03  0.7818608E-02  0.1260257E+00
         -4   -1    0    0    0  501 -0.00000000000E+00  0.00000000000E+00  0.17816992923E+03  0.17817558778E+03  0.14200000000E+01 0.  1.
          4   -1    0    0  501    0  0.00000000000E+00 -0.00000000000E+00 -0.16994835500E+02  0.17054056223E+02  0.14200000000E+01 0. -1.
         23    2    1    2    0    0  0.00000000000E+00  0.00000000000E+00  0.16117509373E+03  0.19522964401E+03  0.11016897503E+03 0.  0.
        -11    1    3    3    0    0  0.23914584961E+02 -0.28057768061E+02  0.15311692567E+03  0.15749266221E+03  0.51100000000E-03 0.  1.
         11    1    3    3    0    0 -0.23914584961E+02  0.28057768061E+02  0.80581680582E+01  0.37736981797E+02  0.51100000000E-03 0. -1.
<mgrwt>
<rscale>  0 0.11016898E+03</rscale>
<asrwt>0</asrwt>
<pdfrwt beam="2">  1        4 0.26195807E-02 0.11016898E+03</pdfrwt>
<pdfrwt beam="1">  1       -4 0.27415750E-01 0.11016898E+03</pdfrwt>
<totfact> 0.12915795E+04</totfact>
</mgrwt>
</event>
<event>
 5    1  0.1133829E+000  0.8539166E+02  0.7818608E-02  0.1314411E+00
         -4   -1    0    0    0  501 -0.00000000000E+00  0.00000000000E+00  0.14703580334E+03  0.14704266002E+03  0.14200000000E+01 0.  1.
          4   -1    0    0  501    0  0.00000000000E+00 -0.00000000000E+00 -0.12350062398E+02  0.12431429574E+02  0.14200000000E+01 0. -1.
         23    2    1    2    0    0  0.00000000000E+00  0.00000000000E+00  0.13468574094E+03  0.15947408959E+03  0.85391664914E+02 0.  0.
        -11    1    3    3    0    0  0.27129855391E+02 -0.29470487541E+02  0.39743675596E+02  0.56427816187E+02  0.51100000000E-03 0.  1.
         11    1    3    3    0    0 -0.27129855391E+02  0.29470487541E+02  0.94942065348E+02  0.10304627340E+03  0.51100000000E-03 0. -1.
<mgrwt>
<rscale>  0 0.85391665E+02</rscale>
<asrwt>0</asrwt>
<pdfrwt beam="2">  1        4 0.19067961E-02 0.85391665E+02</pdfrwt>
<pdfrwt beam="1">  1       -4 0.22627678E-01 0.85391665E+02</pdfrwt>
<totfact> 0.27647967E+04</totfact>
</mgrwt>
</event>
<event>
 5    1  0.1133829E+000  0.7434398E+02  0.7818608E-02  0.1345915E+00
         -4   -1    0    0    0  501 -0.00000000000E+00  0.00000000000E+00  0.37825434191E+02  0.37852078830E+02  0.14200000000E+01 0.  1.
          4   -1    0    0  501    0  0.00000000000E+00 -0.00000000000E+00 -0.36476509296E+02  0.36504138539E+02  0.14200000000E+01 0. -1.
         23    2    1    2    0    0  0.00000000000E+00  0.00000000000E+00  0.13489248945E+01  0.74356217368E+02  0.74343980677E+02 0.  0.
        -11    1    3    3    0    0 -0.39192964661E+01 -0.36732171303E+02 -0.34666987454E+01  0.37102982277E+02  0.51100000000E-03 0. -1.
         11    1    3    3    0    0  0.39192964661E+01  0.36732171303E+02  0.48156236399E+01  0.37253235091E+02  0.51100000000E-03 0.  1.
<mgrwt>
<rscale>  0 0.74343981E+02</rscale>
<asrwt>0</asrwt>
<pdfrwt beam="2">  1        4 0.56159456E-02 0.74343981E+02</pdfrwt>
<pdfrwt beam="1">  1       -4 0.58234725E-02 0.74343981E+02</pdfrwt>
<totfact> 0.48656735E+04</totfact>
</mgrwt>
</event>
<event>
 5    1  0.1133829E+000  0.8940759E+02  0.7818608E-02  0.1304293E+00
         -4   -1    0    0    0  501 -0.00000000000E+00  0.00000000000E+00  0.27823635979E+02  0.27859847793E+02  0.14200000000E+01 0.  1.
          4   -1    0    0  501    0  0.00000000000E+00 -0.00000000000E+00 -0.71734931911E+02  0.71748985054E+02  0.14200000000E+01 0. -1.
         23    2    1    2    0    0  0.00000000000E+00  0.00000000000E+00 -0.43911295932E+02  0.99608832847E+02  0.89407592914E+02 0.  0.
        -11    1    3    3    0    0 -0.63714753604E+01 -0.43198796116E+02 -0.32624132914E+02  0.54507483273E+02  0.51100000000E-03 0. -1.
         11    1    3    3    0    0  0.63714753604E+01  0.43198796116E+02 -0.11287163018E+02  0.45101349574E+02  0.51100000000E-03 0.  1.
<mgrwt>
<rscale>  0 0.89407593E+02</rscale>
<asrwt>0</asrwt>
<pdfrwt beam="2">  1        4 0.11040010E-01 0.89407593E+02</pdfrwt>
<pdfrwt beam="1">  1       -4 0.42844259E-02 0.89407593E+02</pdfrwt>
<totfact> 0.27922596E+04</totfact>
</mgrwt>
</event>
<event>
 5    1  0.1133829E+000  0.9079684E+02  0.7818608E-02  0.1300933E+00
         -4   -1    0    0    0  501 -0.00000000000E+00  0.00000000000E+00  0.11869892881E+03  0.11870742227E+03  0.14200000000E+01 0.  1.
          4   -1    0    0  501    0  0.00000000000E+00 -0.00000000000E+00 -0.17325231666E+02  0.17383326848E+02  0.14200000000E+01 0. -1.
         23    2    1    2    0    0  0.00000000000E+00  0.00000000000E+00  0.10137369715E+03  0.13609074911E+03  0.90796836517E+02 0.  0.
        -11    1    3    3    0    0 -0.16208210822E+01 -0.27990378928E+02 -0.28312552841E+01  0.28179857705E+02  0.51100000000E-03 0. -1.
         11    1    3    3    0    0  0.16208210822E+01  0.27990378928E+02  0.10420495243E+03  0.10791089141E+03  0.51100000000E-03 0.  1.
<mgrwt>
<rscale>  0 0.90796837E+02</rscale>
<asrwt>0</asrwt>
<pdfrwt beam="2">  1        4 0.26705424E-02 0.90796837E+02</pdfrwt>
<pdfrwt beam="1">  1       -4 0.18266496E-01 0.90796837E+02</pdfrwt>
<totfact> 0.24666800E+04</totfact>
</mgrwt>
</event>
<event>
 5    1  0.1133829E+000  0.9238385E+02  0.7818608E-02  0.1297179E+00
          4   -1    0    0  501    0  0.00000000000E+00  0.00000000000E+00  0.10061720184E+03  0.10062722150E+03  0.14200000000E+01 0.  1.
         -4   -1    0    0    0  501 -0.00000000000E+00 -0.00000000000E+00 -0.21171196529E+02  0.21218764395E+02  0.14200000000E+01 0. -1.
         23    2    1    2    0    0  0.00000000000E+00  0.00000000000E+00  0.79446005312E+02  0.12184598589E+03  0.92383854206E+02 0.  0.
        -11    1    3    3    0    0  0.21294422779E+02  0.31808091328E+02  0.56224327677E+01  0.38688743400E+02  0.51100000000E-03 0. -1.
         11    1    3    3    0    0 -0.21294422779E+02 -0.31808091328E+02  0.73823572544E+02  0.83157242492E+02  0.51100000000E-03 0.  1.
<mgrwt>
<rscale>  0 0.92383854E+02</rscale>
<asrwt>0</asrwt>
<pdfrwt beam="1">  1        4 0.15483999E-01 0.92383854E+02</pdfrwt>
<pdfrwt beam="2">  1       -4 0.32615370E-02 0.92383854E+02</pdfrwt>
<totfact> 0.24287688E+04</totfact>
</mgrwt>
</event>
<event>
 5    1  0.1133829E+000  0.9245451E+02  0.7818608E-02  0.1297014E+00
         -4   -1    0    0    0  501 -0.00000000000E+00  0.00000000000E+00  0.83388125047E+01  0.84588529949E+01  0.14200000000E+01 0. -1.
          4   -1    0    0  501    0  0.00000000000E+00 -0.00000000000E+00 -0.25431323561E+03  0.25431719998E+03  0.14200000000E+01 0.  1.
         23    2    1    2    0    0  0.00000000000E+00  0.00000000000E+00 -0.24597442310E+03  0.26277605297E+03  0.92454514199E+02 0.  0.
        -11    1    3    3    0    0  0.46289417561E+01  0.41541674952E+02 -0.17910370485E+03  0.18391648907E+03  0.51100000000E-03 0.  1.
         11    1    3    3    0    0 -0.46289417561E+01 -0.41541674952E+02 -0.66870718250E+02  0.78859563904E+02  0.51100000000E-03 0. -1.
<mgrwt>
<rscale>  0 0.92454514E+02</rscale>
<asrwt>0</asrwt>
<pdfrwt beam="2">  1        4 0.39134646E-01 0.92454514E+02</pdfrwt>
<pdfrwt beam="1">  1       -4 0.12924333E-02 0.92454514E+02</pdfrwt>
<totfact> 0.18325963E+04</totfact>
</mgrwt>
</event>
<event>
 5    1  0.1133829E+000  0.8440405E+02  0.7818608E-02  0.1316998E+00
         -4   -1    0    0    0  501 -0.00000000000E+00  0.00000000000E+00  0.56142514297E+02  0.56160469297E+02  0.14200000000E+01 0.  1.
          4   -1    0    0  501    0  0.00000000000E+00 -0.00000000000E+00 -0.31684100515E+02  0.31715904929E+02  0.14200000000E+01 0. -1.
         23    2    1    2    0    0  0.00000000000E+00  0.00000000000E+00  0.24458413782E+02  0.87876374226E+02  0.84404046955E+02 0.  0.
        -11    1    3    3    0    0 -0.10048406654E+02 -0.39898357355E+02  0.22004911547E+02  0.46659034799E+02  0.51100000000E-03 0. -1.
         11    1    3    3    0    0  0.10048406654E+02  0.39898357355E+02  0.24535022347E+01  0.41217339427E+02  0.51100000000E-03 0.  1.
<mgrwt>
<rscale>  0 0.84404047E+02</rscale>
<asrwt>0</asrwt>
<pdfrwt beam="2">  1        4 0.48783047E-02 0.84404047E+02</pdfrwt>
<pdfrwt beam="1">  1       -4 0.86411375E-02 0.84404047E+02</pdfrwt>
<totfact> 0.33533471E+04</totfact>
</mgrwt>
</event>
<event>
 5    1  0.1133829E+000  0.9781729E+02  0.7818608E-02  0.1284954E+00
          4   -1    0    0  501    0  0.00000000000E+00  0.00000000000E+00  0.19759812058E+02  0.19810769106E+02  0.14200000000E+01 0. -1.
         -4   -1    0    0    0  501 -0.00000000000E+00 -0.00000000000E+00 -0.12084557026E+03  0.12085391285E+03  0.14200000000E+01 0.  1.
         23    2    1    2    0    0  0.00000000000E+00  0.00000000000E+00 -0.10108575820E+03  0.14066468195E+03  0.97817290080E+02 0.  0.
        -11    1    3    3    0    0  0.25102606908E+02  0.13827420804E+02 -0.10753547389E+03  0.11128888797E+03  0.51100000000E-03 0.  1.
         11    1    3    3    0    0 -0.25102606908E+02 -0.13827420804E+02  0.64497156914E+01  0.29375793988E+02  0.51100000000E-03 0. -1.
<mgrwt>
<rscale>  0 0.97817290E+02</rscale>
<asrwt>0</asrwt>
<pdfrwt beam="1">  1        4 0.30445327E-02 0.97817290E+02</pdfrwt>
<pdfrwt beam="2">  1       -4 0.18596187E-01 0.97817290E+02</pdfrwt>
<totfact> 0.19960011E+04</totfact>
</mgrwt>
</event>
<event>
 5    1  0.1133829E+000  0.8879527E+02  0.7818608E-02  0.1305796E+00
          4   -1    0    0  501    0  0.00000000000E+00  0.00000000000E+00  0.71173564542E+02  0.71187728504E+02  0.14200000000E+01 0. -1.
         -4   -1    0    0    0  501 -0.00000000000E+00 -0.00000000000E+00 -0.27659838294E+02  0.27696264269E+02  0.14200000000E+01 0.  1.
         23    2    1    2    0    0  0.00000000000E+00  0.00000000000E+00  0.43513726248E+02  0.98883992773E+02  0.88795268201E+02 0.  0.
        -11    1    3    3    0    0  0.16501205547E+02 -0.25338296394E+02 -0.14445666289E+02  0.33511137305E+02  0.51100000000E-03 0.  1.
         11    1    3    3    0    0 -0.16501205547E+02  0.25338296394E+02  0.57959392537E+02  0.65372855469E+02  0.51100000000E-03 0. -1.
<mgrwt>
<rscale>  0 0.88795268E+02</rscale>
<asrwt>0</asrwt>
<pdfrwt beam="1">  1        4 0.10953671E-01 0.88795268E+02</pdfrwt>
<pdfrwt beam="2">  1       -4 0.42592513E-02 0.88795268E+02</pdfrwt>
<totfact> 0.28493530E+04</totfact>
</mgrwt>
</event>
<event>
 5    1  0.1133829E+000  0.9113716E+02  0.7818608E-02  0.1300121E+00
          4   -1    0    0  501    0  0.00000000000E+00  0.00000000000E+00  0.50369978173E+02  0.50389990089E+02  0.14200000000E+01 0. -1.
         -4   -1    0    0    0  501 -0.00000000000E+00 -0.00000000000E+00 -0.41184422286E+02  0.41208895145E+02  0.14200000000E+01 0.  1.
         23    2    1    2    0    0  0.00000000000E+00  0.00000000000E+00  0.91855558872E+01  0.91598885234E+02  0.91137156742E+02 0.  0.
        -11    1    3    3    0    0  0.19272293321E+02 -0.30952108377E+02  0.32063301772E+02  0.48554192647E+02  0.51100000000E-03 0. -1.
         11    1    3    3    0    0 -0.19272293321E+02  0.30952108377E+02 -0.22877745884E+02  0.43044692587E+02  0.51100000000E-03 0.  1.
<mgrwt>
<rscale>  0 0.91137157E+02</rscale>
<asrwt>0</asrwt>
<pdfrwt beam="1">  1        4 0.77526493E-02 0.91137157E+02</pdfrwt>
<pdfrwt beam="2">  1       -4 0.63394869E-02 0.91137157E+02</pdfrwt>
<totfact> 0.27021238E+04</totfact>
</mgrwt>
</event>
<event>
 5    1  0.1133829E+000  0.9548263E+02  0.7818608E-02  0.1290093E+00
         -4   -1    0    0    0  501 -0.00000000000E+00  0.00000000000E+00  0.12254227057E+03  0.12255049766E+03  0.14200000000E+01 0.  1.
          4   -1    0    0  501    0  0.00000000000E+00 -0.00000000000E+00 -0.18563597414E+02  0.18617828793E+02  0.14200000000E+01 0. -1.
         23    2    1    2    0    0  0.00000000000E+00  0.00000000000E+00  0.10397867316E+03  0.14116832645E+03  0.95482626284E+02 0.  0.
        -11    1    3    3    0    0 -0.34331602987E+02 -0.33162066828E+02  0.50625179102E+02  0.69579381999E+02  0.51100000000E-03 0. -1.
         11    1    3    3    0    0  0.34331602987E+02  0.33162066828E+02  0.53353494057E+02  0.71588944456E+02  0.51100000000E-03 0.  1.
<mgrwt>
<rscale>  0 0.95482626E+02</rscale>
<asrwt>0</asrwt>
<pdfrwt beam="2">  1        4 0.28607425E-02 0.95482626E+02</pdfrwt>
<pdfrwt beam="1">  1       -4 0.18857462E-01 0.95482626E+02</pdfrwt>
<totfact> 0.21292091E+04</totfact>
</mgrwt>
</event>
<event>
 5    1  0.1133829E+000  0.9804704E+02  0.7818608E-02  0.1284457E+00
          4   -1    0    0  501    0  0.00000000000E+00  0.00000000000E+00  0.12627960602E+03  0.12628758964E+03  0.14200000000E+01 0. -1.
         -4   -1    0    0    0  501 -0.00000000000E+00 -0.00000000000E+00 -0.18996534158E+02  0.19049533066E+02  0.14200000000E+01 0.  1.
         23    2    1    2    0    0  0.00000000000E+00  0.00000000000E+00  0.10728307186E+03  0.14533712271E+03  0.98047038343E+02 0.  0.
        -11    1    3    3    0    0  0.35635621352E+02  0.27084924122E+02  0.24001992066E+02  0.50789627359E+02  0.51100000000E-03 0.  1.
         11    1    3    3    0    0 -0.35635621352E+02 -0.27084924122E+02  0.83281079798E+02  0.94547495347E+02  0.51100000000E-03 0. -1.
<mgrwt>
<rscale>  0 0.98047038E+02</rscale>
<asrwt>0</asrwt>
<pdfrwt beam="1">  1        4 0.19432323E-01 0.98047038E+02</pdfrwt>
<pdfrwt beam="2">  1       -4 0.29272347E-02 0.98047038E+02</pdfrwt>
<totfact> 0.19637291E+04</totfact>
</mgrwt>
</event>
<event>
 5    1  0.1133829E+000  0.8997708E+02  0.7818608E-02  0.1302907E+00
         -4   -1    0    0    0  501 -0.00000000000E+00  0.00000000000E+00  0.21750562995E+02  0.21796866531E+02  0.14200000000E+01 0. -1.
          4   -1    0    0  501    0  0.00000000000E+00 -0.00000000000E+00 -0.92902954714E+02  0.92913806265E+02  0.14200000000E+01 0.  1.
         23    2    1    2    0    0  0.00000000000E+00  0.00000000000E+00 -0.71152391720E+02  0.11471067280E+03  0.89977083782E+02 0.  0.
        -11    1    3    3    0    0 -0.41301093973E+02  0.55214065430E+01 -0.13951808477E+02  0.43942226317E+02  0.51100000000E-03 0.  1.
         11    1    3    3    0    0  0.41301093973E+02 -0.55214065430E+01 -0.57200583242E+02  0.70768446480E+02  0.51100000000E-03 0. -1.
<mgrwt>
<rscale>  0 0.89977084E+02</rscale>
<asrwt>0</asrwt>
<pdfrwt beam="2">  1        4 0.14297159E-01 0.89977084E+02</pdfrwt>
<pdfrwt beam="1">  1       -4 0.33506371E-02 0.89977084E+02</pdfrwt>
<totfact> 0.26506360E+04</totfact>
</mgrwt>
</event>
<event>
 5    1  0.1133829E+000  0.9086162E+02  0.7818608E-02  0.1300778E+00
          4   -1    0    0  501    0  0.00000000000E+00  0.00000000000E+00  0.67482176130E+02  0.67497114718E+02  0.14200000000E+01 0. -1.
         -4   -1    0    0    0  501 -0.00000000000E+00 -0.00000000000E+00 -0.30550425471E+02  0.30583408843E+02  0.14200000000E+01 0.  1.
         23    2    1    2    0    0  0.00000000000E+00  0.00000000000E+00  0.36931750659E+02  0.98080523561E+02  0.90861624988E+02 0.  0.
        -11    1    3    3    0    0 -0.33739836071E+02  0.16733860185E+02 -0.89606391837E+01  0.38712939305E+02  0.51100000000E-03 0.  1.
         11    1    3    3    0    0  0.33739836071E+02 -0.16733860185E+02  0.45892389842E+02  0.59367584257E+02  0.51100000000E-03 0. -1.
<mgrwt>
<rscale>  0 0.90861625E+02</rscale>
<asrwt>0</asrwt>
<pdfrwt beam="1">  1        4 0.10385560E-01 0.90861625E+02</pdfrwt>
<pdfrwt beam="2">  1       -4 0.47037518E-02 0.90861625E+02</pdfrwt>
<totfact> 0.26828199E+04</totfact>
</mgrwt>
</event>
<event>
 5    1  0.1133829E+000  0.8237462E+02  0.7818608E-02  0.1322445E+00
         -4   -1    0    0    0  501 -0.00000000000E+00  0.00000000000E+00  0.94092283064E+01  0.95157751824E+01  0.14200000000E+01 0.  1.
          4   -1    0    0  501    0  0.00000000000E+00 -0.00000000000E+00 -0.17916609341E+03  0.17917172050E+03  0.14200000000E+01 0. -1.
         23    2    1    2    0    0  0.00000000000E+00  0.00000000000E+00 -0.16975686510E+03  0.18868749568E+03  0.82374618530E+02 0.  0.
        -11    1    3    3    0    0  0.19346535089E+02  0.27029841888E+02 -0.14058735463E+03  0.14446350769E+03  0.51100000000E-03 0. -1.
         11    1    3    3    0    0 -0.19346535089E+02 -0.27029841888E+02 -0.29169510473E+02  0.44223987993E+02  0.51100000000E-03 0.  1.
<mgrwt>
<rscale>  0 0.82374619E+02</rscale>
<asrwt>0</asrwt>
<pdfrwt beam="2">  1        4 0.27572641E-01 0.82374619E+02</pdfrwt>
<pdfrwt beam="1">  1       -4 0.14562025E-02 0.82374619E+02</pdfrwt>
<totfact> 0.28640982E+04</totfact>
</mgrwt>
</event>
<event>
 5    1  0.1133829E+000  0.9082279E+02  0.7818608E-02  0.1300871E+00
         -4   -1    0    0    0  501 -0.00000000000E+00  0.00000000000E+00  0.25708677102E+02  0.25747863569E+02  0.14200000000E+01 0.  1.
          4   -1    0    0  501    0  0.00000000000E+00 -0.00000000000E+00 -0.80107390841E+02  0.80119975458E+02  0.14200000000E+01 0. -1.
         23    2    1    2    0    0  0.00000000000E+00  0.00000000000E+00 -0.54398713739E+02  0.10586783903E+03  0.90822790552E+02 0.  0.
        -11    1    3    3    0    0  0.26384697802E+02  0.26151515485E+02 -0.57643672347E+02  0.68577306758E+02  0.51100000000E-03 0. -1.
         11    1    3    3    0    0 -0.26384697802E+02 -0.26151515485E+02  0.32449586086E+01  0.37290532269E+02  0.51100000000E-03 0.  1.
<mgrwt>
<rscale>  0 0.90822791E+02</rscale>
<asrwt>0</asrwt>
<pdfrwt beam="2">  1        4 0.12328196E-01 0.90822791E+02</pdfrwt>
<pdfrwt beam="1">  1       -4 0.39591635E-02 0.90822791E+02</pdfrwt>
<totfact> 0.26375958E+04</totfact>
</mgrwt>
</event>
<event>
 5    1  0.1133829E+000  0.9289587E+02  0.7818608E-02  0.1295987E+00
         -4   -1    0    0    0  501 -0.00000000000E+00  0.00000000000E+00  0.78710126740E+01  0.79980773011E+01  0.14200000000E+01 0.  1.
          4   -1    0    0  501    0  0.00000000000E+00 -0.00000000000E+00 -0.27177207884E+03  0.27177578854E+03  0.14200000000E+01 0. -1.
         23    2    1    2    0    0  0.00000000000E+00  0.00000000000E+00 -0.26390106617E+03  0.27977386585E+03  0.92895873346E+02 0.  0.
        -11    1    3    3    0    0 -0.24172169613E+01 -0.40468798901E+02 -0.63681075764E+02  0.75490701633E+02  0.51100000000E-03 0.  1.
         11    1    3    3    0    0  0.24172169613E+01  0.40468798901E+02 -0.20021999041E+03  0.20428316421E+03  0.51100000000E-03 0. -1.
<mgrwt>
<rscale>  0 0.92895873E+02</rscale>
<asrwt>0</asrwt>
<pdfrwt beam="2">  1        4 0.41821142E-01 0.92895873E+02</pdfrwt>
<pdfrwt beam="1">  1       -4 0.12209848E-02 0.92895873E+02</pdfrwt>
<totfact> 0.17558140E+04</totfact>
</mgrwt>
</event>
<event>
 5    1  0.1133829E+000  0.9131083E+02  0.7818608E-02  0.1299708E+00
          4   -1    0    0  501    0  0.00000000000E+00  0.00000000000E+00  0.23889645082E+02  0.23931810257E+02  0.14200000000E+01 0. -1.
         -4   -1    0    0    0  501 -0.00000000000E+00 -0.00000000000E+00 -0.87127004080E+02  0.87138574925E+02  0.14200000000E+01 0.  1.
         23    2    1    2    0    0  0.00000000000E+00  0.00000000000E+00 -0.63237358997E+02  0.11107038518E+03  0.91310825707E+02 0.  0.
        -11    1    3    3    0    0  0.69832580339E+00 -0.15404877643E+02 -0.83890140060E+02  0.85295682855E+02  0.51100000000E-03 0.  1.
         11    1    3    3    0    0 -0.69832580339E+00  0.15404877643E+02  0.20652781063E+02  0.25774702326E+02  0.51100000000E-03 0. -1.
<mgrwt>
<rscale>  0 0.91310826E+02</rscale>
<asrwt>0</asrwt>
<pdfrwt beam="1">  1        4 0.36794636E-02 0.91310826E+02</pdfrwt>
<pdfrwt beam="2">  1       -4 0.13408288E-01 0.91310826E+02</pdfrwt>
<totfact> 0.25686924E+04</totfact>
</mgrwt>
</event>
<event>
 5    1  0.1133829E+000  0.9159105E+02  0.7818608E-02  0.1299044E+00
          4   -1    0    0  501    0  0.00000000000E+00  0.00000000000E+00  0.63483661996E+02  0.63499541262E+02  0.14200000000E+01 0. -1.
         -4   -1    0    0    0  501 -0.00000000000E+00 -0.00000000000E+00 -0.33000465669E+02  0.33031002625E+02  0.14200000000E+01 0.  1.
         23    2    1    2    0    0  0.00000000000E+00  0.00000000000E+00  0.30483196327E+02  0.96530543887E+02  0.91591051117E+02 0.  0.
        -11    1    3    3    0    0 -0.36107280254E+02 -0.27710465852E+02  0.99065310960E+01  0.46580521291E+02  0.51100000000E-03 0.  1.
         11    1    3    3    0    0  0.36107280254E+02  0.27710465852E+02  0.20576665231E+02  0.49950022596E+02  0.51100000000E-03 0. -1.
<mgrwt>
<rscale>  0 0.91591051E+02</rscale>
<asrwt>0</asrwt>
<pdfrwt beam="1">  1        4 0.97702878E-02 0.91591051E+02</pdfrwt>
<pdfrwt beam="2">  1       -4 0.50805652E-02 0.91591051E+02</pdfrwt>
<totfact> 0.26348277E+04</totfact>
</mgrwt>
</event>
<event>
 5    1  0.1133829E+000  0.9234830E+02  0.7818608E-02  0.1297263E+00
          4   -1    0    0  501    0  0.00000000000E+00  0.00000000000E+00  0.26003446783E+03  0.26003834498E+03  0.14200000000E+01 0. -1.
         -4   -1    0    0    0  501 -0.00000000000E+00 -0.00000000000E+00 -0.81336623325E+01  0.82566859538E+01  0.14200000000E+01 0.  1.
         23    2    1    2    0    0  0.00000000000E+00  0.00000000000E+00  0.25190080550E+03  0.26829503093E+03  0.92348296211E+02 0.  0.
        -11    1    3    3    0    0  0.22143240448E+02  0.34672387676E+02  0.18686060647E+03  0.19133578811E+03  0.51100000000E-03 0.  1.
         11    1    3    3    0    0 -0.22143240448E+02 -0.34672387676E+02  0.65040199030E+02  0.76959242816E+02  0.51100000000E-03 0. -1.
<mgrwt>
<rscale>  0 0.92348296E+02</rscale>
<asrwt>0</asrwt>
<pdfrwt beam="1">  1        4 0.40015062E-01 0.92348296E+02</pdfrwt>
<pdfrwt beam="2">  1       -4 0.12610944E-02 0.92348296E+02</pdfrwt>
<totfact> 0.18202434E+04</totfact>
</mgrwt>
</event>
<event>
 5    1  0.1133829E+000  0.9173932E+02  0.7818608E-02  0.1298694E+00
          4   -1    0    0  501    0  0.00000000000E+00  0.00000000000E+00  0.92874107227E+01  0.93953391600E+01  0.14200000000E+01 0. -1.
         -4   -1    0    0    0  501 -0.00000000000E+00 -0.00000000000E+00 -0.22512707776E+03  0.22513155607E+03  0.14200000000E+01 0.  1.
         23    2    1    2    0    0  0.00000000000E+00  0.00000000000E+00 -0.21583966703E+03  0.23452689523E+03  0.91739319388E+02 0.  0.
        -11    1    3    3    0    0 -0.13044860296E+02  0.43540326650E+02 -0.92140669719E+02  0.10274157601E+03  0.51100000000E-03 0.  1.
         11    1    3    3    0    0  0.13044860296E+02 -0.43540326650E+02 -0.12369899732E+03  0.13178531922E+03  0.51100000000E-03 0. -1.
<mgrwt>
<rscale>  0 0.91739319E+02</rscale>
<asrwt>0</asrwt>
<pdfrwt beam="1">  1        4 0.14374793E-02 0.91739319E+02</pdfrwt>
<pdfrwt beam="2">  1       -4 0.34643578E-01 0.91739319E+02</pdfrwt>
<totfact> 0.19698602E+04</totfact>
</mgrwt>
</event>
<event>
 5    1  0.1133829E+000  0.9055640E+02  0.7818608E-02  0.1301510E+00
          4   -1    0    0  501    0  0.00000000000E+00  0.00000000000E+00  0.64188146937E+02  0.64203851965E+02  0.14200000000E+01 0. -1.
         -4   -1    0    0    0  501 -0.00000000000E+00 -0.00000000000E+00 -0.31903748570E+02  0.31935334237E+02  0.14200000000E+01 0.  1.
         23    2    1    2    0    0  0.00000000000E+00  0.00000000000E+00  0.32284398367E+02  0.96139186202E+02  0.90556395388E+02 0.  0.
        -11    1    3    3    0    0 -0.21771553078E+02 -0.22278988339E+02  0.51027719251E+02  0.59784462673E+02  0.51100000000E-03 0. -1.
         11    1    3    3    0    0  0.21771553078E+02  0.22278988339E+02 -0.18743320885E+02  0.36354723529E+02  0.51100000000E-03 0.  1.
<mgrwt>
<rscale>  0 0.90556395E+02</rscale>
<asrwt>0</asrwt>
<pdfrwt beam="1">  1        4 0.98787372E-02 0.90556395E+02</pdfrwt>
<pdfrwt beam="2">  1       -4 0.49119068E-02 0.90556395E+02</pdfrwt>
<totfact> 0.27197740E+04</totfact>
</mgrwt>
</event>
<event>
 5    1  0.1133829E+000  0.9212326E+02  0.7818608E-02  0.1297790E+00
         -4   -1    0    0    0  501 -0.00000000000E+00  0.00000000000E+00  0.13986774448E+03  0.13987495253E+03  0.14200000000E+01 0.  1.
          4   -1    0    0  501    0  0.00000000000E+00 -0.00000000000E+00 -0.15128294738E+02  0.15194791927E+02  0.14200000000E+01 0. -1.
         23    2    1    2    0    0  0.00000000000E+00  0.00000000000E+00  0.12473944974E+03  0.15506974446E+03  0.92123261584E+02 0.  0.
        -11    1    3    3    0    0 -0.13622109480E+02  0.20518899527E+02 -0.31506709383E+01  0.24829696577E+02  0.51100000000E-03 0. -1.
         11    1    3    3    0    0  0.13622109480E+02 -0.20518899527E+02  0.12789012068E+03  0.13024004788E+03  0.51100000000E-03 0.  1.
<mgrwt>
<rscale>  0 0.92123262E+02</rscale>
<asrwt>0</asrwt>
<pdfrwt beam="2">  1        4 0.23330995E-02 0.92123262E+02</pdfrwt>
<pdfrwt beam="1">  1       -4 0.21523785E-01 0.92123262E+02</pdfrwt>
<totfact> 0.22778085E+04</totfact>
</mgrwt>
</event>
<event>
 5    1  0.1133829E+000  0.9680522E+02  0.7818608E-02  0.1287161E+00
         -4   -1    0    0    0  501 -0.00000000000E+00  0.00000000000E+00  0.87654910397E+01  0.88797653779E+01  0.14200000000E+01 0.  1.
          4   -1    0    0  501    0  0.00000000000E+00 -0.00000000000E+00 -0.26542968624E+03  0.26543348459E+03  0.14200000000E+01 0. -1.
         23    2    1    2    0    0  0.00000000000E+00  0.00000000000E+00 -0.25666419520E+03  0.27431324996E+03  0.96805216833E+02 0.  0.
        -11    1    3    3    0    0  0.38317967785E+02 -0.18719828555E+02 -0.19320462944E+03  0.19785531954E+03  0.51100000000E-03 0. -1.
         11    1    3    3    0    0 -0.38317967785E+02  0.18719828555E+02 -0.63459565769E+02  0.76457930420E+02  0.51100000000E-03 0.  1.
<mgrwt>
<rscale>  0 0.96805217E+02</rscale>
<asrwt>0</asrwt>
<pdfrwt beam="2">  1        4 0.40844413E-01 0.96805217E+02</pdfrwt>
<pdfrwt beam="1">  1       -4 0.13576198E-02 0.96805217E+02</pdfrwt>
<totfact> 0.15873524E+04</totfact>
</mgrwt>
</event>
<event>
 5    1  0.1133829E+000  0.8942787E+02  0.7818608E-02  0.1304243E+00
         -4   -1    0    0    0  501 -0.00000000000E+00  0.00000000000E+00  0.18756552637E+02  0.18810227719E+02  0.14200000000E+01 0.  1.
          4   -1    0    0  501    0  0.00000000000E+00 -0.00000000000E+00 -0.10638328946E+03  0.10639276609E+03  0.14200000000E+01 0. -1.
         23    2    1    2    0    0  0.00000000000E+00  0.00000000000E+00 -0.87626736827E+02  0.12520299381E+03  0.89427874026E+02 0.  0.
        -11    1    3    3    0    0 -0.31320888936E+02 -0.31614969728E+02 -0.37737793799E+02  0.58349339976E+02  0.51100000000E-03 0.  1.
         11    1    3    3    0    0  0.31320888936E+02  0.31614969728E+02 -0.49888943028E+02  0.66853653836E+02  0.51100000000E-03 0. -1.
<mgrwt>
<rscale>  0 0.89427874E+02</rscale>
<asrwt>0</asrwt>
<pdfrwt beam="2">  1        4 0.16371517E-01 0.89427874E+02</pdfrwt>
<pdfrwt beam="1">  1       -4 0.28904814E-02 0.89427874E+02</pdfrwt>
<totfact> 0.26317876E+04</totfact>
</mgrwt>
</event>
<event>
 5    1  0.1133829E+000  0.9030811E+02  0.7818608E-02  0.1302107E+00
          4   -1    0    0  501    0  0.00000000000E+00  0.00000000000E+00  0.13611343671E+03  0.13612084357E+03  0.14200000000E+01 0. -1.
         -4   -1    0    0    0  501 -0.00000000000E+00 -0.00000000000E+00 -0.14937847049E+02  0.15005188251E+02  0.14200000000E+01 0.  1.
         23    2    1    2    0    0  0.00000000000E+00  0.00000000000E+00  0.12117558966E+03  0.15112603182E+03  0.90308105743E+02 0.  0.
        -11    1    3    3    0    0 -0.43137470090E+02 -0.11845183884E+02  0.70868111535E+02  0.83805960049E+02  0.51100000000E-03 0. -1.
         11    1    3    3    0    0  0.43137470090E+02  0.11845183884E+02  0.50307478128E+02  0.67320071768E+02  0.51100000000E-03 0.  1.
<mgrwt>
<rscale>  0 0.90308106E+02</rscale>
<asrwt>0</asrwt>
<pdfrwt beam="1">  1        4 0.20946279E-01 0.90308106E+02</pdfrwt>
<pdfrwt beam="2">  1       -4 0.23038801E-02 0.90308106E+02</pdfrwt>
<totfact> 0.24231675E+04</totfact>
</mgrwt>
</event>
<event>
 5    1  0.1133829E+000  0.9309109E+02  0.7818608E-02  0.1295534E+00
          4   -1    0    0  501    0  0.00000000000E+00  0.00000000000E+00  0.52172473859E+02  0.52191794648E+02  0.14200000000E+01 0. -1.
         -4   -1    0    0    0  501 -0.00000000000E+00 -0.00000000000E+00 -0.41486336448E+02  0.41510631311E+02  0.14200000000E+01 0.  1.
         23    2    1    2    0    0  0.00000000000E+00  0.00000000000E+00  0.10686137411E+02  0.93702425959E+02  0.93091090325E+02 0.  0.
        -11    1    3    3    0    0  0.64811575079E+01  0.27862289435E+02 -0.31615563042E+02  0.42636327257E+02  0.51100000000E-03 0.  1.
         11    1    3    3    0    0 -0.64811575079E+01 -0.27862289435E+02  0.42301700453E+02  0.51066098703E+02  0.51100000000E-03 0. -1.
<mgrwt>
<rscale>  0 0.93091090E+02</rscale>
<asrwt>0</asrwt>
<pdfrwt beam="1">  1        4 0.80298895E-02 0.93091090E+02</pdfrwt>
<pdfrwt beam="2">  1       -4 0.63858684E-02 0.93091090E+02</pdfrwt>
<totfact> 0.25377669E+04</totfact>
</mgrwt>
</event>
<event>
 5    1  0.1133829E+000  0.9121511E+02  0.7818608E-02  0.1299936E+00
          4   -1    0    0  501    0  0.00000000000E+00  0.00000000000E+00  0.13758259478E+03  0.13758992255E+03  0.14200000000E+01 0.  1.
         -4   -1    0    0    0  501 -0.00000000000E+00 -0.00000000000E+00 -0.15077456145E+02  0.15144176564E+02  0.14200000000E+01 0. -1.
         23    2    1    2    0    0  0.00000000000E+00  0.00000000000E+00  0.12250513863E+03  0.15273409911E+03  0.91215108611E+02 0.  0.
        -11    1    3    3    0    0 -0.22442596923E+02 -0.90289835910E+01  0.12599201138E+03  0.12829333433E+03  0.51100000000E-03 0.  1.
         11    1    3    3    0    0  0.22442596923E+02  0.90289835910E+01 -0.34868727442E+01  0.24440764782E+02  0.51100000000E-03 0. -1.
<mgrwt>
<rscale>  0 0.91215109E+02</rscale>
<asrwt>0</asrwt>
<pdfrwt beam="1">  1        4 0.21172249E-01 0.91215109E+02</pdfrwt>
<pdfrwt beam="2">  1       -4 0.23253046E-02 0.91215109E+02</pdfrwt>
<totfact> 0.23510037E+04</totfact>
</mgrwt>
</event>
<event>
 5    1  0.1133829E+000  0.9221293E+02  0.7818608E-02  0.1297580E+00
         -4   -1    0    0    0  501 -0.00000000000E+00  0.00000000000E+00  0.39325975204E+02  0.39351603852E+02  0.14200000000E+01 0. -1.
          4   -1    0    0  501    0  0.00000000000E+00 -0.00000000000E+00 -0.54003454795E+02  0.54022120745E+02  0.14200000000E+01 0.  1.
         23    2    1    2    0    0  0.00000000000E+00  0.00000000000E+00 -0.14677479591E+02  0.93373724597E+02  0.92212927717E+02 0.  0.
        -11    1    3    3    0    0 -0.21772456333E+02  0.55250788188E+01  0.33432740650E+02  0.40277965420E+02  0.51100000000E-03 0. -1.
         11    1    3    3    0    0  0.21772456333E+02 -0.55250788188E+01 -0.48110220241E+02  0.53095759177E+02  0.51100000000E-03 0.  1.
<mgrwt>
<rscale>  0 0.92212928E+02</rscale>
<asrwt>0</asrwt>
<pdfrwt beam="2">  1        4 0.83116311E-02 0.92212928E+02</pdfrwt>
<pdfrwt beam="1">  1       -4 0.60535573E-02 0.92212928E+02</pdfrwt>
<totfact> 0.26061975E+04</totfact>
</mgrwt>
</event>
<event>
 5    1  0.1133829E+000  0.9027833E+02  0.7818608E-02  0.1302179E+00
         -4   -1    0    0    0  501 -0.00000000000E+00  0.00000000000E+00  0.24404810777E+03  0.24405223889E+03  0.14200000000E+01 0.  1.
          4   -1    0    0  501    0  0.00000000000E+00 -0.00000000000E+00 -0.82843335509E+01  0.84051521332E+01  0.14200000000E+01 0. -1.
         23    2    1    2    0    0  0.00000000000E+00  0.00000000000E+00  0.23576377422E+03  0.25245739102E+03  0.90278330994E+02 0.  0.
        -11    1    3    3    0    0  0.17165710622E+01  0.38194122148E+02  0.18498503859E+03  0.18889468517E+03  0.51100000000E-03 0.  1.
         11    1    3    3    0    0 -0.17165710622E+01 -0.38194122148E+02  0.50778735631E+02  0.63562705853E+02  0.51100000000E-03 0. -1.
<mgrwt>
<rscale>  0 0.90278331E+02</rscale>
<asrwt>0</asrwt>
<pdfrwt beam="2">  1        4 0.12841244E-02 0.90278331E+02</pdfrwt>
<pdfrwt beam="1">  1       -4 0.37555473E-01 0.90278331E+02</pdfrwt>
<totfact> 0.19894297E+04</totfact>
</mgrwt>
</event>
<event>
 5    1  0.1133829E+000  0.8987537E+02  0.7818608E-02  0.1303154E+00
         -4   -1    0    0    0  501 -0.00000000000E+00  0.00000000000E+00  0.13830001668E+02  0.13902710029E+02  0.14200000000E+01 0.  1.
          4   -1    0    0  501    0  0.00000000000E+00 -0.00000000000E+00 -0.14555656582E+03  0.14556349217E+03  0.14200000000E+01 0. -1.
         23    2    1    2    0    0  0.00000000000E+00  0.00000000000E+00 -0.13172656415E+03  0.15946620220E+03  0.89875368935E+02 0.  0.
        -11    1    3    3    0    0 -0.26410154340E+01 -0.24925252277E+02  0.31497233757E+00  0.25066758295E+02  0.51100000000E-03 0.  1.
         11    1    3    3    0    0  0.26410154340E+01  0.24925252277E+02 -0.13204153649E+03  0.13439944391E+03  0.51100000000E-03 0. -1.
<mgrwt>
<rscale>  0 0.89875369E+02</rscale>
<asrwt>0</asrwt>
<pdfrwt beam="2">  1        4 0.22399443E-01 0.89875369E+02</pdfrwt>
<pdfrwt beam="1">  1       -4 0.21338184E-02 0.89875369E+02</pdfrwt>
<totfact> 0.24118796E+04</totfact>
</mgrwt>
</event>
<event>
 5    1  0.1133829E+000  0.8747798E+02  0.7818608E-02  0.1309077E+00
          4   -1    0    0  501    0  0.00000000000E+00  0.00000000000E+00  0.37502356002E+02  0.37529230018E+02  0.14200000000E+01 0. -1.
         -4   -1    0    0    0  501 -0.00000000000E+00 -0.00000000000E+00 -0.50957731909E+02  0.50977513095E+02  0.14200000000E+01 0.  1.
         23    2    1    2    0    0  0.00000000000E+00  0.00000000000E+00 -0.13455375907E+02  0.88506743112E+02  0.87477976860E+02 0.  0.
        -11    1    3    3    0    0  0.65444709577E+01  0.82705700742E+01  0.36219917678E+02  0.37724194708E+02  0.51100000000E-03 0. -1.
         11    1    3    3    0    0 -0.65444709577E+01 -0.82705700742E+01 -0.49675293585E+02  0.50782548405E+02  0.51100000000E-03 0.  1.
<mgrwt>
<rscale>  0 0.87477977E+02</rscale>
<asrwt>0</asrwt>
<pdfrwt beam="1">  1        4 0.57731821E-02 0.87477977E+02</pdfrwt>
<pdfrwt beam="2">  1       -4 0.78432399E-02 0.87477977E+02</pdfrwt>
<totfact> 0.30410546E+04</totfact>
</mgrwt>
</event>
<event>
 5    1  0.1133829E+000  0.7617347E+02  0.7818608E-02  0.1340275E+00
          4   -1    0    0  501    0  0.00000000000E+00  0.00000000000E+00  0.12367167838E+03  0.12367983034E+03  0.14200000000E+01 0.  1.
         -4   -1    0    0    0  501 -0.00000000000E+00 -0.00000000000E+00 -0.11677891353E+02  0.11763908638E+02  0.14200000000E+01 0. -1.
         23    2    1    2    0    0  0.00000000000E+00  0.00000000000E+00  0.11199378703E+03  0.13544373898E+03  0.76173473705E+02 0.  0.
        -11    1    3    3    0    0 -0.10567620931E+02 -0.21047416431E+02  0.27747334133E+01  0.23714288864E+02  0.51100000000E-03 0. -1.
         11    1    3    3    0    0  0.10567620931E+02  0.21047416431E+02  0.10921905362E+03  0.11172945012E+03  0.51100000000E-03 0.  1.
<mgrwt>
<rscale>  0 0.76173474E+02</rscale>
<asrwt>0</asrwt>
<pdfrwt beam="1">  1        4 0.19033655E-01 0.76173474E+02</pdfrwt>
<pdfrwt beam="2">  1       -4 0.18038426E-02 0.76173474E+02</pdfrwt>
<totfact> 0.39401863E+04</totfact>
</mgrwt>
</event>
<event>
 5    1  0.1133829E+000  0.9009950E+02  0.7818608E-02  0.1302611E+00
          4   -1    0    0  501    0  0.00000000000E+00  0.00000000000E+00  0.30414471971E+02  0.30447602619E+02  0.14200000000E+01 0. -1.
         -4   -1    0    0    0  501 -0.00000000000E+00 -0.00000000000E+00 -0.66650419646E+02  0.66665544617E+02  0.14200000000E+01 0.  1.
         23    2    1    2    0    0  0.00000000000E+00  0.00000000000E+00 -0.36235947676E+02  0.97113147236E+02  0.90099497569E+02 0.  0.
        -11    1    3    3    0    0  0.47520880802E+01 -0.44575623698E+02 -0.13308412971E+02  0.46761976276E+02  0.51100000000E-03 0. -1.
         11    1    3    3    0    0 -0.47520880802E+01  0.44575623698E+02 -0.22927534705E+02  0.50351170960E+02  0.51100000000E-03 0.  1.
<mgrwt>
<rscale>  0 0.90099498E+02</rscale>
<asrwt>0</asrwt>
<pdfrwt beam="1">  1        4 0.46828615E-02 0.90099498E+02</pdfrwt>
<pdfrwt beam="2">  1       -4 0.10257623E-01 0.90099498E+02</pdfrwt>
<totfact> 0.27508658E+04</totfact>
</mgrwt>
</event>
<event>
 5    1  0.1133829E+000  0.8952257E+02  0.7818608E-02  0.1304012E+00
          4   -1    0    0  501    0  0.00000000000E+00  0.00000000000E+00  0.68718383554E+02  0.68733053463E+02  0.14200000000E+01 0. -1.
         -4   -1    0    0    0  501 -0.00000000000E+00 -0.00000000000E+00 -0.29121198031E+02  0.29155798304E+02  0.14200000000E+01 0.  1.
         23    2    1    2    0    0  0.00000000000E+00  0.00000000000E+00  0.39597185523E+02  0.97888851767E+02  0.89522568098E+02 0.  0.
        -11    1    3    3    0    0  0.41261922822E+02  0.15876993824E+01  0.38690545920E+02  0.56586441911E+02  0.51100000000E-03 0. -1.
         11    1    3    3    0    0 -0.41261922822E+02 -0.15876993824E+01  0.90663960319E+00  0.41302409856E+02  0.51100000000E-03 0.  1.
<mgrwt>
<rscale>  0 0.89522568E+02</rscale>
<asrwt>0</asrwt>
<pdfrwt beam="1">  1        4 0.10575849E-01 0.89522568E+02</pdfrwt>
<pdfrwt beam="2">  1       -4 0.44839744E-02 0.89522568E+02</pdfrwt>
<totfact> 0.27938813E+04</totfact>
</mgrwt>
</event>
<event>
 5    1  0.1133829E+000  0.9101600E+02  0.7818608E-02  0.1300410E+00
          4   -1    0    0  501    0  0.00000000000E+00  0.00000000000E+00  0.18928262829E+03  0.18928795464E+03  0.14200000000E+01 0. -1.
         -4   -1    0    0    0  501 -0.00000000000E+00 -0.00000000000E+00 -0.10889617734E+02  0.10981811071E+02  0.14200000000E+01 0.  1.
         23    2    1    2    0    0  0.00000000000E+00  0.00000000000E+00  0.17839301055E+03  0.20026976571E+03  0.91016003227E+02 0.  0.
        -11    1    3    3    0    0 -0.24253724395E+02  0.25072039392E+02  0.24889381664E+02  0.42852440143E+02  0.51100000000E-03 0.  1.
         11    1    3    3    0    0  0.24253724395E+02 -0.25072039392E+02  0.15350362889E+03  0.15741732557E+03  0.51100000000E-03 0. -1.
<mgrwt>
<rscale>  0 0.91016003E+02</rscale>
<asrwt>0</asrwt>
<pdfrwt beam="1">  1        4 0.29127905E-01 0.91016003E+02</pdfrwt>
<pdfrwt beam="2">  1       -4 0.16828274E-02 0.91016003E+02</pdfrwt>
<totfact> 0.21476333E+04</totfact>
</mgrwt>
</event>
<event>
 5    1  0.1133829E+000  0.9254564E+02  0.7818608E-02  0.1296802E+00
          4   -1    0    0  501    0  0.00000000000E+00  0.00000000000E+00  0.55338097623E+02  0.55356313538E+02  0.14200000000E+01 0. -1.
         -4   -1    0    0    0  501 -0.00000000000E+00 -0.00000000000E+00 -0.38654956798E+02  0.38681030041E+02  0.14200000000E+01 0.  1.
         23    2    1    2    0    0  0.00000000000E+00  0.00000000000E+00  0.16683140825E+02  0.94037343579E+02  0.92545636308E+02 0.  0.
        -11    1    3    3    0    0  0.20922901849E+02 -0.37752518850E+02  0.25288320915E+02  0.50025190417E+02  0.51100000000E-03 0. -1.
         11    1    3    3    0    0 -0.20922901849E+02  0.37752518850E+02 -0.86051800899E+01  0.44012153162E+02  0.51100000000E-03 0.  1.
<mgrwt>
<rscale>  0 0.92545636E+02</rscale>
<asrwt>0</asrwt>
<pdfrwt beam="1">  1        4 0.85169603E-02 0.92545636E+02</pdfrwt>
<pdfrwt beam="2">  1       -4 0.59503233E-02 0.92545636E+02</pdfrwt>
<totfact> 0.25767097E+04</totfact>
</mgrwt>
</event>
<event>
 5    1  0.1133829E+000  0.8939753E+02  0.7818608E-02  0.1304317E+00
          4   -1    0    0  501    0  0.00000000000E+00  0.00000000000E+00  0.10836470388E+02  0.10929112062E+02  0.14200000000E+01 0. -1.
         -4   -1    0    0    0  501 -0.00000000000E+00 -0.00000000000E+00 -0.18349532436E+03  0.18350081870E+03  0.14200000000E+01 0.  1.
         23    2    1    2    0    0  0.00000000000E+00  0.00000000000E+00 -0.17265885397E+03  0.19442993076E+03  0.89397528600E+02 0.  0.
        -11    1    3    3    0    0 -0.40408280518E+02 -0.18209006656E+02 -0.98933007448E+02  0.10840727384E+03  0.51100000000E-03 0.  1.
         11    1    3    3    0    0  0.40408280518E+02  0.18209006656E+02 -0.73725846526E+02  0.86022656923E+02  0.51100000000E-03 0. -1.
<mgrwt>
<rscale>  0 0.89397529E+02</rscale>
<asrwt>0</asrwt>
<pdfrwt beam="1">  1        4 0.16746983E-02 0.89397529E+02</pdfrwt>
<pdfrwt beam="2">  1       -4 0.28237597E-01 0.89397529E+02</pdfrwt>
<totfact> 0.22789421E+04</totfact>
</mgrwt>
</event>
<event>
 5    1  0.1133829E+000  0.9175974E+02  0.7818608E-02  0.1298645E+00
          4   -1    0    0  501    0  0.00000000000E+00  0.00000000000E+00  0.94903980053E+01  0.95960436795E+01  0.14200000000E+01 0.  1.
         -4   -1    0    0    0  501 -0.00000000000E+00 -0.00000000000E+00 -0.22046355025E+03  0.22046812329E+03  0.14200000000E+01 0. -1.
         23    2    1    2    0    0  0.00000000000E+00  0.00000000000E+00 -0.21097315224E+03  0.23006416697E+03  0.91759740394E+02 0.  0.
        -11    1    3    3    0    0  0.12503636481E+02  0.42826507776E+02 -0.78656499217E+02  0.90428400201E+02  0.51100000000E-03 0.  1.
         11    1    3    3    0    0 -0.12503636481E+02 -0.42826507776E+02 -0.13231665303E+03  0.13963576677E+03  0.51100000000E-03 0. -1.
<mgrwt>
<rscale>  0 0.91759740E+02</rscale>
<asrwt>0</asrwt>
<pdfrwt beam="1">  1        4 0.14685398E-02 0.91759740E+02</pdfrwt>
<pdfrwt beam="2">  1       -4 0.33925944E-01 0.91759740E+02</pdfrwt>
<totfact> 0.19851142E+04</totfact>
</mgrwt>
</event>
<event>
 5    1  0.1133829E+000  0.7362436E+02  0.7818608E-02  0.1348185E+00
         -4   -1    0    0    0  501 -0.00000000000E+00  0.00000000000E+00  0.32518021430E+02  0.32549011010E+02  0.14200000000E+01 0.  1.
          4   -1    0    0  501    0  0.00000000000E+00 -0.00000000000E+00 -0.41610445084E+02  0.41634667527E+02  0.14200000000E+01 0. -1.
         23    2    1    2    0    0  0.00000000000E+00  0.00000000000E+00 -0.90924236539E+01  0.74183678537E+02  0.73624357337E+02 0.  0.
        -11    1    3    3    0    0  0.31062760194E+02 -0.13557114155E+02 -0.19023598417E+02  0.38866279885E+02  0.51100000000E-03 0. -1.
         11    1    3    3    0    0 -0.31062760194E+02  0.13557114155E+02  0.99311747628E+01  0.35317398652E+02  0.51100000000E-03 0.  1.
<mgrwt>
<rscale>  0 0.73624357E+02</rscale>
<asrwt>0</asrwt>
<pdfrwt beam="2">  1        4 0.64058540E-02 0.73624357E+02</pdfrwt>
<pdfrwt beam="1">  1       -4 0.50070196E-02 0.73624357E+02</pdfrwt>
<totfact> 0.49941538E+04</totfact>
</mgrwt>
</event>
<event>
 5    1  0.1133829E+000  0.9088091E+02  0.7818608E-02  0.1300732E+00
          4   -1    0    0  501    0  0.00000000000E+00  0.00000000000E+00  0.26894540849E+02  0.26932001921E+02  0.14200000000E+01 0. -1.
         -4   -1    0    0    0  501 -0.00000000000E+00 -0.00000000000E+00 -0.76677765076E+02  0.76690912480E+02  0.14200000000E+01 0.  1.
         23    2    1    2    0    0  0.00000000000E+00  0.00000000000E+00 -0.49783224227E+02  0.10362291440E+03  0.90880905446E+02 0.  0.
        -11    1    3    3    0    0 -0.43239717947E+02 -0.11364523844E+02 -0.34155326826E+02  0.56261993932E+02  0.51100000000E-03 0.  1.
         11    1    3    3    0    0  0.43239717947E+02  0.11364523844E+02 -0.15627897400E+02  0.47360920470E+02  0.51100000000E-03 0. -1.
<mgrwt>
<rscale>  0 0.90880905E+02</rscale>
<asrwt>0</asrwt>
<pdfrwt beam="1">  1        4 0.41415147E-02 0.90880905E+02</pdfrwt>
<pdfrwt beam="2">  1       -4 0.11800472E-01 0.90880905E+02</pdfrwt>
<totfact> 0.26467850E+04</totfact>
</mgrwt>
</event>
<event>
 5    1  0.1133829E+000  0.9188102E+02  0.7818608E-02  0.1298359E+00
         -4   -1    0    0    0  501 -0.00000000000E+00  0.00000000000E+00  0.17346608484E+02  0.17404632311E+02  0.14200000000E+01 0.  1.
          4   -1    0    0  501    0  0.00000000000E+00 -0.00000000000E+00 -0.12140284806E+03  0.12141115236E+03  0.14200000000E+01 0. -1.
         23    2    1    2    0    0  0.00000000000E+00  0.00000000000E+00 -0.10405623958E+03  0.13881578467E+03  0.91881015878E+02 0.  0.
        -11    1    3    3    0    0  0.68637125081E+01  0.39303068962E+02 -0.17619569948E+02  0.43615261373E+02  0.51100000000E-03 0.  1.
         11    1    3    3    0    0 -0.68637125081E+01 -0.39303068962E+02 -0.86436669628E+02  0.95200523297E+02  0.51100000000E-03 0. -1.
<mgrwt>
<rscale>  0 0.91881016E+02</rscale>
<asrwt>0</asrwt>
<pdfrwt beam="2">  1        4 0.18682463E-01 0.91881016E+02</pdfrwt>
<pdfrwt beam="1">  1       -4 0.26738112E-02 0.91881016E+02</pdfrwt>
<totfact> 0.23748641E+04</totfact>
</mgrwt>
</event>
<event>
 5    1  0.1133829E+000  0.9132238E+02  0.7818608E-02  0.1299681E+00
         -4   -1    0    0    0  501 -0.00000000000E+00  0.00000000000E+00  0.18262514019E+02  0.18317636810E+02  0.14200000000E+01 0.  1.
          4   -1    0    0  501    0  0.00000000000E+00 -0.00000000000E+00 -0.11393364419E+03  0.11394249286E+03  0.14200000000E+01 0. -1.
         23    2    1    2    0    0  0.00000000000E+00  0.00000000000E+00 -0.95671130174E+02  0.13226012967E+03  0.91322378154E+02 0.  0.
        -11    1    3    3    0    0 -0.22268418706E+02  0.33550903834E+02 -0.79012188367E+02  0.88681855701E+02  0.51100000000E-03 0. -1.
         11    1    3    3    0    0  0.22268418706E+02 -0.33550903834E+02 -0.16658941807E+02  0.43578273969E+02  0.51100000000E-03 0.  1.
<mgrwt>
<rscale>  0 0.91322378E+02</rscale>
<asrwt>0</asrwt>
<pdfrwt beam="2">  1        4 0.17533173E-01 0.91322378E+02</pdfrwt>
<pdfrwt beam="1">  1       -4 0.28145385E-02 0.91322378E+02</pdfrwt>
<totfact> 0.24489758E+04</totfact>
</mgrwt>
</event>
<event>
 5    1  0.1133829E+000  0.9187927E+02  0.7818608E-02  0.1298364E+00
         -4   -1    0    0    0  501 -0.00000000000E+00  0.00000000000E+00  0.35149346247E+02  0.35178017874E+02  0.14200000000E+01 0. -1.
          4   -1    0    0  501    0  0.00000000000E+00 -0.00000000000E+00 -0.59980814121E+02  0.59997620475E+02  0.14200000000E+01 0.  1.
         23    2    1    2    0    0  0.00000000000E+00  0.00000000000E+00 -0.24831467875E+02  0.95175638349E+02  0.91879270450E+02 0.  0.
        -11    1    3    3    0    0  0.18334943976E+01 -0.16930101239E+02 -0.56613349210E+02  0.59119043791E+02  0.51100000000E-03 0.  1.
         11    1    3    3    0    0 -0.18334943976E+01  0.16930101239E+02  0.31781881335E+02  0.36056594559E+02  0.51100000000E-03 0. -1.
<mgrwt>
<rscale>  0 0.91879270E+02</rscale>
<asrwt>0</asrwt>
<pdfrwt beam="2">  1        4 0.92313159E-02 0.91879270E+02</pdfrwt>
<pdfrwt beam="1">  1       -4 0.54110900E-02 0.91879270E+02</pdfrwt>
<totfact> 0.26208077E+04</totfact>
</mgrwt>
</event>
<event>
 5    1  0.1133829E+000  0.9235492E+02  0.7818608E-02  0.1297247E+00
         -4   -1    0    0    0  501 -0.00000000000E+00  0.00000000000E+00  0.90755502323E+01  0.91859682134E+01  0.14200000000E+01 0.  1.
          4   -1    0    0  501    0  0.00000000000E+00 -0.00000000000E+00 -0.23342304817E+03  0.23342736732E+03  0.14200000000E+01 0. -1.
         23    2    1    2    0    0  0.00000000000E+00  0.00000000000E+00 -0.22434749793E+03  0.24261333554E+03  0.92354917307E+02 0.  0.
        -11    1    3    3    0    0  0.45912549948E+02  0.36262523745E+01 -0.12098319568E+03  0.12945287014E+03  0.51100000000E-03 0. -1.
         11    1    3    3    0    0 -0.45912549948E+02 -0.36262523745E+01 -0.10336430225E+03  0.11316046540E+03  0.51100000000E-03 0.  1.
<mgrwt>
<rscale>  0 0.92354917E+02</rscale>
<asrwt>0</asrwt>
<pdfrwt beam="2">  1        4 0.35920060E-01 0.92354917E+02</pdfrwt>
<pdfrwt beam="1">  1       -4 0.14050646E-02 0.92354917E+02</pdfrwt>
<totfact> 0.19062477E+04</totfact>
</mgrwt>
</event>
<event>
 5    1  0.1133829E+000  0.9116875E+02  0.7818608E-02  0.1300046E+00
         -4   -1    0    0    0  501 -0.00000000000E+00  0.00000000000E+00  0.10292888195E+03  0.10293867660E+03  0.14200000000E+01 0.  1.
          4   -1    0    0  501    0  0.00000000000E+00 -0.00000000000E+00 -0.20152326328E+02  0.20202293346E+02  0.14200000000E+01 0. -1.
         23    2    1    2    0    0  0.00000000000E+00  0.00000000000E+00  0.82776555624E+02  0.12314096994E+03  0.91168746387E+02 0.  0.
        -11    1    3    3    0    0  0.14679965422E+02  0.33571343056E+02  0.78016681519E+02  0.86192453585E+02  0.51100000000E-03 0. -1.
         11    1    3    3    0    0 -0.14679965422E+02 -0.33571343056E+02  0.47598741044E+01  0.36948516359E+02  0.51100000000E-03 0.  1.
<mgrwt>
<rscale>  0 0.91168746E+02</rscale>
<asrwt>0</asrwt>
<pdfrwt beam="2">  1        4 0.31049549E-02 0.91168746E+02</pdfrwt>
<pdfrwt beam="1">  1       -4 0.15839810E-01 0.91168746E+02</pdfrwt>
<totfact> 0.25101878E+04</totfact>
</mgrwt>
</event>
<event>
 5    1  0.1133829E+000  0.8750075E+02  0.7818608E-02  0.1309019E+00
          4   -1    0    0  501    0  0.00000000000E+00  0.00000000000E+00  0.12397009268E+03  0.12397822502E+03  0.14200000000E+01 0.  1.
         -4   -1    0    0    0  501 -0.00000000000E+00 -0.00000000000E+00 -0.15398668643E+02  0.15464003232E+02  0.14200000000E+01 0. -1.
         23    2    1    2    0    0  0.00000000000E+00  0.00000000000E+00  0.10857142404E+03  0.13944222825E+03  0.87500748011E+02 0.  0.
        -11    1    3    3    0    0  0.27560596695E+02  0.33877120251E+02  0.50114995499E+02  0.66473743244E+02  0.51100000000E-03 0.  1.
         11    1    3    3    0    0 -0.27560596695E+02 -0.33877120251E+02  0.58456428539E+02  0.72968485009E+02  0.51100000000E-03 0. -1.
<mgrwt>
<rscale>  0 0.87500748E+02</rscale>
<asrwt>0</asrwt>
<pdfrwt beam="1">  1        4 0.19077973E-01 0.87500748E+02</pdfrwt>
<pdfrwt beam="2">  1       -4 0.23746773E-02 0.87500748E+02</pdfrwt>
<totfact> 0.27040069E+04</totfact>
</mgrwt>
</event>
<event>
 5    1  0.1133829E+000  0.9043087E+02  0.7818608E-02  0.1301812E+00
          4   -1    0    0  501    0  0.00000000000E+00  0.00000000000E+00  0.30893791314E+02  0.30926408485E+02  0.14200000000E+01 0.  1.
         -4   -1    0    0    0  501 -0.00000000000E+00 -0.00000000000E+00 -0.66101097687E+02  0.66116348322E+02  0.14200000000E+01 0. -1.
         23    2    1    2    0    0  0.00000000000E+00  0.00000000000E+00 -0.35207306372E+02  0.97042756807E+02  0.90430869877E+02 0.  0.
        -11    1    3    3    0    0 -0.16510857713E+02  0.25745508629E+01  0.27482505116E+02  0.32164029945E+02  0.51100000000E-03 0.  1.
         11    1    3    3    0    0  0.16510857713E+02 -0.25745508629E+01 -0.62689811488E+02  0.64878726862E+02  0.51100000000E-03 0. -1.
<mgrwt>
<rscale>  0 0.90430870E+02</rscale>
<asrwt>0</asrwt>
<pdfrwt beam="1">  1        4 0.47565731E-02 0.90430870E+02</pdfrwt>
<pdfrwt beam="2">  1       -4 0.10173082E-01 0.90430870E+02</pdfrwt>
<totfact> 0.27241643E+04</totfact>
</mgrwt>
</event>
<event>
 5    1  0.1133829E+000  0.9466584E+02  0.7818608E-02  0.1291930E+00
         -4   -1    0    0    0  501 -0.00000000000E+00  0.00000000000E+00  0.99166393192E+01  0.10017790943E+02  0.14200000000E+01 0.  1.
          4   -1    0    0  501    0  0.00000000000E+00 -0.00000000000E+00 -0.22467404347E+03  0.22467853081E+03  0.14200000000E+01 0. -1.
         23    2    1    2    0    0  0.00000000000E+00  0.00000000000E+00 -0.21475740415E+03  0.23469632176E+03  0.94665837604E+02 0.  0.
        -11    1    3    3    0    0 -0.21949617826E+02 -0.24517943665E+02 -0.19172608454E+03  0.19452970667E+03  0.51100000000E-03 0.  1.
         11    1    3    3    0    0  0.21949617826E+02  0.24517943665E+02 -0.23031319610E+02  0.40166615086E+02  0.51100000000E-03 0. -1.
<mgrwt>
<rscale>  0 0.94665838E+02</rscale>
<asrwt>0</asrwt>
<pdfrwt beam="2">  1        4 0.34573360E-01 0.94665838E+02</pdfrwt>
<pdfrwt beam="1">  1       -4 0.15337631E-02 0.94665838E+02</pdfrwt>
<totfact> 0.18102010E+04</totfact>
</mgrwt>
</event>
<event>
 5    1  0.1133829E+000  0.9016616E+02  0.7818608E-02  0.1302450E+00
         -4   -1    0    0    0  501 -0.00000000000E+00  0.00000000000E+00  0.65232872974E+02  0.65248326542E+02  0.14200000000E+01 0. -1.
          4   -1    0    0  501    0  0.00000000000E+00 -0.00000000000E+00 -0.31122028077E+02  0.31154406295E+02  0.14200000000E+01 0.  1.
         23    2    1    2    0    0  0.00000000000E+00  0.00000000000E+00  0.34110844898E+02  0.96402732837E+02  0.90166164157E+02 0.  0.
        -11    1    3    3    0    0  0.17449461194E+02  0.18056230950E+02  0.57088188102E+02  0.62366436431E+02  0.51100000000E-03 0. -1.
         11    1    3    3    0    0 -0.17449461194E+02 -0.18056230950E+02 -0.22977343204E+02  0.34036296406E+02  0.51100000000E-03 0.  1.
<mgrwt>
<rscale>  0 0.90166164E+02</rscale>
<asrwt>0</asrwt>
<pdfrwt beam="2">  1        4 0.47916837E-02 0.90166164E+02</pdfrwt>
<pdfrwt beam="1">  1       -4 0.10039506E-01 0.90166164E+02</pdfrwt>
<totfact> 0.27499898E+04</totfact>
</mgrwt>
</event>
<event>
 5    1  0.1133829E+000  0.9638540E+02  0.7818608E-02  0.1288086E+00
          4   -1    0    0  501    0  0.00000000000E+00  0.00000000000E+00  0.10412785378E+02  0.10509162637E+02  0.14200000000E+01 0. -1.
         -4   -1    0    0    0  501 -0.00000000000E+00 -0.00000000000E+00 -0.22192044864E+03  0.22192499166E+03  0.14200000000E+01 0.  1.
         23    2    1    2    0    0  0.00000000000E+00  0.00000000000E+00 -0.21150766326E+03  0.23243415429E+03  0.96385395502E+02 0.  0.
        -11    1    3    3    0    0 -0.44895459639E+02 -0.56070775263E+01 -0.14578010696E+03  0.15263971043E+03  0.51100000000E-03 0.  1.
         11    1    3    3    0    0  0.44895459639E+02  0.56070775263E+01 -0.65727556293E+02  0.79794443861E+02  0.51100000000E-03 0. -1.
<mgrwt>
<rscale>  0 0.96385396E+02</rscale>
<asrwt>0</asrwt>
<pdfrwt beam="1">  1        4 0.16097302E-02 0.96385396E+02</pdfrwt>
<pdfrwt beam="2">  1       -4 0.34149367E-01 0.96385396E+02</pdfrwt>
<totfact> 0.17318697E+04</totfact>
</mgrwt>
</event>
<event>
 5    1  0.1133829E+000  0.8830262E+02  0.7818608E-02  0.1307015E+00
         -4   -1    0    0    0  501 -0.00000000000E+00  0.00000000000E+00  0.51038734525E+02  0.51058484329E+02  0.14200000000E+01 0.  1.
          4   -1    0    0  501    0  0.00000000000E+00 -0.00000000000E+00 -0.38152961505E+02  0.38179377570E+02  0.14200000000E+01 0. -1.
         23    2    1    2    0    0  0.00000000000E+00  0.00000000000E+00  0.12885773020E+02  0.89237861898E+02  0.88302620855E+02 0.  0.
        -11    1    3    3    0    0  0.18820472786E+02 -0.39721304212E+02  0.22339213197E+01  0.44011164594E+02  0.51100000000E-03 0. -1.
         11    1    3    3    0    0 -0.18820472786E+02  0.39721304212E+02  0.10651851700E+02  0.45226697305E+02  0.51100000000E-03 0.  1.
<mgrwt>
<rscale>  0 0.88302621E+02</rscale>
<asrwt>0</asrwt>
<pdfrwt beam="2">  1        4 0.58732377E-02 0.88302621E+02</pdfrwt>
<pdfrwt beam="1">  1       -4 0.78556642E-02 0.88302621E+02</pdfrwt>
<totfact> 0.29598291E+04</totfact>
</mgrwt>
</event>
<event>
 5    1  0.1133829E+000  0.9200110E+02  0.7818608E-02  0.1298077E+00
          4   -1    0    0  501    0  0.00000000000E+00  0.00000000000E+00  0.58376571675E+02  0.58393839748E+02  0.14200000000E+01 0.  1.
         -4   -1    0    0    0  501 -0.00000000000E+00 -0.00000000000E+00 -0.36211740371E+02  0.36239571476E+02  0.14200000000E+01 0. -1.
         23    2    1    2    0    0  0.00000000000E+00  0.00000000000E+00  0.22164831303E+02  0.94633411223E+02  0.92001102021E+02 0.  0.
        -11    1    3    3    0    0  0.11031420144E+02  0.17048206834E+02  0.53539504025E+02  0.57260912306E+02  0.51100000000E-03 0.  1.
         11    1    3    3    0    0 -0.11031420144E+02 -0.17048206834E+02 -0.31374672722E+02  0.37372498917E+02  0.51100000000E-03 0. -1.
<mgrwt>
<rscale>  0 0.92001102E+02</rscale>
<asrwt>0</asrwt>
<pdfrwt beam="1">  1        4 0.89844801E-02 0.92001102E+02</pdfrwt>
<pdfrwt beam="2">  1       -4 0.55745062E-02 0.92001102E+02</pdfrwt>
<totfact> 0.26147460E+04</totfact>
</mgrwt>
</event>
<event>
 5    1  0.1133829E+000  0.9084087E+02  0.7818608E-02  0.1300828E+00
         -4   -1    0    0    0  501 -0.00000000000E+00  0.00000000000E+00  0.17835344463E+03  0.17835909736E+03  0.14200000000E+01 0.  1.
          4   -1    0    0  501    0  0.00000000000E+00 -0.00000000000E+00 -0.11517569644E+02  0.11604775332E+02  0.14200000000E+01 0. -1.
         23    2    1    2    0    0  0.00000000000E+00  0.00000000000E+00  0.16683587499E+03  0.18996387269E+03  0.90840870460E+02 0.  0.
        -11    1    3    3    0    0  0.32361044275E+02  0.12999109947E+02  0.14427074744E+03  0.14842594993E+03  0.51100000000E-03 0.  1.
         11    1    3    3    0    0 -0.32361044275E+02 -0.12999109947E+02  0.22565127550E+02  0.41537922765E+02  0.51100000000E-03 0. -1.
<mgrwt>
<rscale>  0 0.90840870E+02</rscale>
<asrwt>0</asrwt>
<pdfrwt beam="2">  1        4 0.17790768E-02 0.90840870E+02</pdfrwt>
<pdfrwt beam="1">  1       -4 0.27446134E-01 0.90840870E+02</pdfrwt>
<totfact> 0.22029572E+04</totfact>
</mgrwt>
</event>
<event>
 5    1  0.1133829E+000  0.9157180E+02  0.7818608E-02  0.1299089E+00
         -4   -1    0    0    0  501 -0.00000000000E+00  0.00000000000E+00  0.68837684156E+01  0.70287031236E+01  0.14200000000E+01 0. -1.
          4   -1    0    0  501    0  0.00000000000E+00 -0.00000000000E+00 -0.30121587975E+03  0.30121922684E+03  0.14200000000E+01 0.  1.
         23    2    1    2    0    0  0.00000000000E+00  0.00000000000E+00 -0.29433211134E+03  0.30824792996E+03  0.91571800025E+02 0.  0.
        -11    1    3    3    0    0 -0.44408777169E+02 -0.92127123672E+01 -0.12605410118E+03  0.13396510733E+03  0.51100000000E-03 0. -1.
         11    1    3    3    0    0  0.44408777169E+02  0.92127123672E+01 -0.16827801016E+03  0.17428282263E+03  0.51100000000E-03 0.  1.
<mgrwt>
<rscale>  0 0.91571800E+02</rscale>
<asrwt>0</asrwt>
<pdfrwt beam="2">  1        4 0.46352301E-01 0.91571800E+02</pdfrwt>
<pdfrwt beam="1">  1       -4 0.10704478E-02 0.91571800E+02</pdfrwt>
<totfact> 0.17370429E+04</totfact>
</mgrwt>
</event>
<event>
 5    1  0.1133829E+000  0.9010406E+02  0.7818608E-02  0.1302600E+00
         -4   -1    0    0    0  501 -0.00000000000E+00  0.00000000000E+00  0.22520292939E+03  0.22520740620E+03  0.14200000000E+01 0.  1.
          4   -1    0    0  501    0  0.00000000000E+00 -0.00000000000E+00 -0.89521672935E+01  0.90640884402E+01  0.14200000000E+01 0. -1.
         23    2    1    2    0    0  0.00000000000E+00  0.00000000000E+00  0.21625076210E+03  0.23427149464E+03  0.90104057023E+02 0.  0.
        -11    1    3    3    0    0  0.27702512850E+02  0.34366676343E+02  0.13155255949E+03  0.13876085027E+03  0.51100000000E-03 0. -1.
         11    1    3    3    0    0 -0.27702512850E+02 -0.34366676343E+02  0.84698202610E+02  0.95510644363E+02  0.51100000000E-03 0.  1.
<mgrwt>
<rscale>  0 0.90104057E+02</rscale>
<asrwt>0</asrwt>
<pdfrwt beam="2">  1        4 0.13862103E-02 0.90104057E+02</pdfrwt>
<pdfrwt beam="1">  1       -4 0.34655556E-01 0.90104057E+02</pdfrwt>
<totfact> 0.20676625E+04</totfact>
</mgrwt>
</event>
<event>
 5    1  0.1133829E+000  0.9013573E+02  0.7818608E-02  0.1302523E+00
          4   -1    0    0  501    0  0.00000000000E+00  0.00000000000E+00  0.45188041501E+02  0.45210347209E+02  0.14200000000E+01 0. -1.
         -4   -1    0    0    0  501 -0.00000000000E+00 -0.00000000000E+00 -0.44903386233E+02  0.44925833272E+02  0.14200000000E+01 0.  1.
         23    2    1    2    0    0  0.00000000000E+00  0.00000000000E+00  0.28465526822E+00  0.90136180481E+02  0.90135731001E+02 0.  0.
        -11    1    3    3    0    0  0.52641355359E+01 -0.35219303762E+02 -0.27480301311E+02  0.44980856381E+02  0.51100000000E-03 0.  1.
         11    1    3    3    0    0 -0.52641355359E+01  0.35219303762E+02  0.27764956579E+02  0.45155324099E+02  0.51100000000E-03 0. -1.
<mgrwt>
<rscale>  0 0.90135731E+02</rscale>
<asrwt>0</asrwt>
<pdfrwt beam="1">  1        4 0.69554489E-02 0.90135731E+02</pdfrwt>
<pdfrwt beam="2">  1       -4 0.69116558E-02 0.90135731E+02</pdfrwt>
<totfact> 0.27939280E+04</totfact>
</mgrwt>
</event>
<event>
 5    1  0.1133829E+000  0.8987014E+02  0.7818608E-02  0.1303166E+00
         -4   -1    0    0    0  501 -0.00000000000E+00  0.00000000000E+00  0.26875809265E+02  0.26913296410E+02  0.14200000000E+01 0.  1.
          4   -1    0    0  501    0  0.00000000000E+00 -0.00000000000E+00 -0.75032724596E+02  0.75046160197E+02  0.14200000000E+01 0. -1.
         23    2    1    2    0    0  0.00000000000E+00  0.00000000000E+00 -0.48156915331E+02  0.10195945661E+03  0.89870141301E+02 0.  0.
        -11    1    3    3    0    0  0.44556594429E+02 -0.29631566441E+01 -0.29761277490E+02  0.53663805703E+02  0.51100000000E-03 0.  1.
         11    1    3    3    0    0 -0.44556594429E+02  0.29631566441E+01 -0.18395637841E+02  0.48295650904E+02  0.51100000000E-03 0. -1.
<mgrwt>
<rscale>  0 0.89870141E+02</rscale>
<asrwt>0</asrwt>
<pdfrwt beam="2">  1        4 0.11547413E-01 0.89870141E+02</pdfrwt>
<pdfrwt beam="1">  1       -4 0.41386570E-02 0.89870141E+02</pdfrwt>
<totfact> 0.27385174E+04</totfact>
</mgrwt>
</event>
<event>
 5    1  0.1133829E+000  0.9717814E+02  0.7818608E-02  0.1286344E+00
         -4   -1    0    0    0  501 -0.00000000000E+00  0.00000000000E+00  0.47498431622E+01  0.49575608989E+01  0.14200000000E+01 0.  1.
          4   -1    0    0  501    0  0.00000000000E+00 -0.00000000000E+00 -0.48620298003E+03  0.48620505365E+03  0.14200000000E+01 0. -1.
         23    2    1    2    0    0  0.00000000000E+00  0.00000000000E+00 -0.48145313687E+03  0.49116261454E+03  0.97178140165E+02 0.  0.
        -11    1    3    3    0    0  0.95953897007E+01  0.47422147444E+02 -0.21814240604E+03  0.22344359665E+03  0.51100000000E-03 0.  1.
         11    1    3    3    0    0 -0.95953897007E+01 -0.47422147444E+02 -0.26331073083E+03  0.26771901789E+03  0.51100000000E-03 0. -1.
<mgrwt>
<rscale>  0 0.97178140E+02</rscale>
<asrwt>0</asrwt>
<pdfrwt beam="2">  1        4 0.74816558E-01 0.97178140E+02</pdfrwt>
<pdfrwt beam="1">  1       -4 0.74688328E-03 0.97178140E+02</pdfrwt>
<totfact> 0.11177041E+04</totfact>
</mgrwt>
</event>
<event>
 5    1  0.1133829E+000  0.9121882E+02  0.7818608E-02  0.1299927E+00
         -4   -1    0    0    0  501 -0.00000000000E+00  0.00000000000E+00  0.80298724202E+02  0.80311278837E+02  0.14200000000E+01 0.  1.
          4   -1    0    0  501    0  0.00000000000E+00 -0.00000000000E+00 -0.25871945676E+02  0.25910885224E+02  0.14200000000E+01 0. -1.
         23    2    1    2    0    0  0.00000000000E+00  0.00000000000E+00  0.54426778526E+02  0.10622216406E+03  0.91218824358E+02 0.  0.
        -11    1    3    3    0    0 -0.33054527470E+02 -0.27865764090E+02  0.44133029716E+02  0.61780473507E+02  0.51100000000E-03 0.  1.
         11    1    3    3    0    0  0.33054527470E+02  0.27865764090E+02  0.10293748810E+02  0.44441690555E+02  0.51100000000E-03 0. -1.
<mgrwt>
<rscale>  0 0.91218824E+02</rscale>
<asrwt>0</asrwt>
<pdfrwt beam="2">  1        4 0.39842604E-02 0.91218824E+02</pdfrwt>
<pdfrwt beam="1">  1       -4 0.12357611E-01 0.91218824E+02</pdfrwt>
<totfact> 0.26045891E+04</totfact>
</mgrwt>
</event>
<event>
 5    1  0.1133829E+000  0.9353828E+02  0.7818608E-02  0.1294503E+00
         -4   -1    0    0    0  501 -0.00000000000E+00  0.00000000000E+00  0.37504303647E+02  0.37531176268E+02  0.14200000000E+01 0.  1.
          4   -1    0    0  501    0  0.00000000000E+00 -0.00000000000E+00 -0.58266295701E+02  0.58283596447E+02  0.14200000000E+01 0. -1.
         23    2    1    2    0    0  0.00000000000E+00  0.00000000000E+00 -0.20761992054E+02  0.95814772715E+02  0.93538282838E+02 0.  0.
        -11    1    3    3    0    0 -0.40576055977E+02  0.66389411906E+01 -0.33213861474E+02  0.52855013509E+02  0.51100000000E-03 0. -1.
         11    1    3    3    0    0  0.40576055977E+02 -0.66389411906E+01  0.12451869419E+02  0.42959759206E+02  0.51100000000E-03 0.  1.
<mgrwt>
<rscale>  0 0.93538283E+02</rscale>
<asrwt>0</asrwt>
<pdfrwt beam="2">  1        4 0.89674435E-02 0.93538283E+02</pdfrwt>
<pdfrwt beam="1">  1       -4 0.57732908E-02 0.93538283E+02</pdfrwt>
<totfact> 0.24924102E+04</totfact>
</mgrwt>
</event>
<event>
 5    1  0.1133829E+000  0.9163800E+02  0.7818608E-02  0.1298933E+00
          4   -1    0    0  501    0  0.00000000000E+00  0.00000000000E+00  0.15847638864E+03  0.15848275035E+03  0.14200000000E+01 0. -1.
         -4   -1    0    0    0  501 -0.00000000000E+00 -0.00000000000E+00 -0.13202578069E+02  0.13278722366E+02  0.14200000000E+01 0.  1.
         23    2    1    2    0    0  0.00000000000E+00  0.00000000000E+00  0.14527381057E+03  0.17176147271E+03  0.91638002323E+02 0.  0.
        -11    1    3    3    0    0 -0.26831839638E+02 -0.29997948750E+02  0.11368282121E+03  0.12059688382E+03  0.51100000000E-03 0. -1.
         11    1    3    3    0    0  0.26831839638E+02  0.29997948750E+02  0.31590989360E+02  0.51164588893E+02  0.51100000000E-03 0.  1.
<mgrwt>
<rscale>  0 0.91638002E+02</rscale>
<asrwt>0</asrwt>
<pdfrwt beam="1">  1        4 0.24387329E-01 0.91638002E+02</pdfrwt>
<pdfrwt beam="2">  1       -4 0.20375125E-02 0.91638002E+02</pdfrwt>
<totfact> 0.22320968E+04</totfact>
</mgrwt>
</event>
<event>
 5    1  0.1133829E+000  0.8998138E+02  0.7818608E-02  0.1302897E+00
          4   -1    0    0  501    0  0.00000000000E+00  0.00000000000E+00  0.93701204640E+01  0.94771070222E+01  0.14200000000E+01 0. -1.
         -4   -1    0    0    0  501 -0.00000000000E+00 -0.00000000000E+00 -0.21468745141E+03  0.21469214749E+03  0.14200000000E+01 0.  1.
         23    2    1    2    0    0  0.00000000000E+00  0.00000000000E+00 -0.20531733095E+03  0.22416925451E+03  0.89981377411E+02 0.  0.
        -11    1    3    3    0    0  0.34125650196E+02  0.12996097606E+01 -0.29688546220E+02  0.45251063676E+02  0.51100000000E-03 0.  1.
         11    1    3    3    0    0 -0.34125650196E+02 -0.12996097606E+01 -0.17562878473E+03  0.17891819084E+03  0.51100000000E-03 0. -1.
<mgrwt>
<rscale>  0 0.89981377E+02</rscale>
<asrwt>0</asrwt>
<pdfrwt beam="1">  1        4 0.14501481E-02 0.89981377E+02</pdfrwt>
<pdfrwt beam="2">  1       -4 0.33037426E-01 0.89981377E+02</pdfrwt>
<totfact> 0.21148296E+04</totfact>
</mgrwt>
</event>
<event>
 5    1  0.1133829E+000  0.9083771E+02  0.7818608E-02  0.1300836E+00
         -4   -1    0    0    0  501 -0.00000000000E+00  0.00000000000E+00  0.82079227876E+02  0.82091510211E+02  0.14200000000E+01 0.  1.
          4   -1    0    0  501    0  0.00000000000E+00 -0.00000000000E+00 -0.25098462095E+02  0.25138599792E+02  0.14200000000E+01 0. -1.
         23    2    1    2    0    0  0.00000000000E+00  0.00000000000E+00  0.56980765782E+02  0.10723011000E+03  0.90837705950E+02 0.  0.
        -11    1    3    3    0    0  0.80718715163E+01  0.33047139803E+02  0.64014204045E+02  0.72491978030E+02  0.51100000000E-03 0.  1.
         11    1    3    3    0    0 -0.80718715163E+01 -0.33047139803E+02 -0.70334382633E+01  0.34738131974E+02  0.51100000000E-03 0. -1.
<mgrwt>
<rscale>  0 0.90837706E+02</rscale>
<asrwt>0</asrwt>
<pdfrwt beam="2">  1        4 0.38653341E-02 0.90837706E+02</pdfrwt>
<pdfrwt beam="1">  1       -4 0.12631606E-01 0.90837706E+02</pdfrwt>
<totfact> 0.26281496E+04</totfact>
</mgrwt>
</event>
<event>
 5    1  0.1133829E+000  0.9181935E+02  0.7818608E-02  0.1298505E+00
         -4   -1    0    0    0  501 -0.00000000000E+00  0.00000000000E+00  0.91519443064E+02  0.91530458639E+02  0.14200000000E+01 0.  1.
          4   -1    0    0  501    0  0.00000000000E+00 -0.00000000000E+00 -0.22995754862E+02  0.23039556021E+02  0.14200000000E+01 0. -1.
         23    2    1    2    0    0  0.00000000000E+00  0.00000000000E+00  0.68523688202E+02  0.11457001466E+03  0.91819346624E+02 0.  0.
        -11    1    3    3    0    0  0.24133347080E+02  0.99836339822E+01  0.81374396851E+02  0.85462762955E+02  0.51100000000E-03 0.  1.
         11    1    3    3    0    0 -0.24133347080E+02 -0.99836339822E+01 -0.12850708649E+02  0.29107251705E+02  0.51100000000E-03 0. -1.
<mgrwt>
<rscale>  0 0.91819347E+02</rscale>
<asrwt>0</asrwt>
<pdfrwt beam="2">  1        4 0.35420251E-02 0.91819347E+02</pdfrwt>
<pdfrwt beam="1">  1       -4 0.14084131E-01 0.91819347E+02</pdfrwt>
<totfact> 0.25102056E+04</totfact>
</mgrwt>
</event>
<event>
 5    1  0.1133829E+000  0.9200252E+02  0.7818608E-02  0.1298074E+00
          4   -1    0    0  501    0  0.00000000000E+00  0.00000000000E+00  0.58146400653E+02  0.58163737061E+02  0.14200000000E+01 0. -1.
         -4   -1    0    0    0  501 -0.00000000000E+00 -0.00000000000E+00 -0.36356270337E+02  0.36383990886E+02  0.14200000000E+01 0.  1.
         23    2    1    2    0    0  0.00000000000E+00  0.00000000000E+00  0.21790130317E+02  0.94547727947E+02  0.92002516709E+02 0.  0.
        -11    1    3    3    0    0 -0.11324280010E+02  0.33958353434E+02  0.40585621467E+02  0.54116557132E+02  0.51100000000E-03 0. -1.
         11    1    3    3    0    0  0.11324280010E+02 -0.33958353434E+02 -0.18795491150E+02  0.40431170816E+02  0.51100000000E-03 0.  1.
<mgrwt>
<rscale>  0 0.92002517E+02</rscale>
<asrwt>0</asrwt>
<pdfrwt beam="1">  1        4 0.89490660E-02 0.92002517E+02</pdfrwt>
<pdfrwt beam="2">  1       -4 0.55967383E-02 0.92002517E+02</pdfrwt>
<totfact> 0.26151699E+04</totfact>
</mgrwt>
</event>
<event>
 5    1  0.1133829E+000  0.8893079E+02  0.7818608E-02  0.1305462E+00
         -4   -1    0    0    0  501 -0.00000000000E+00  0.00000000000E+00  0.14672281569E+02  0.14740836016E+02  0.14200000000E+01 0.  1.
          4   -1    0    0  501    0  0.00000000000E+00 -0.00000000000E+00 -0.13436914488E+03  0.13437664788E+03  0.14200000000E+01 0. -1.
         23    2    1    2    0    0  0.00000000000E+00  0.00000000000E+00 -0.11969686331E+03  0.14911748390E+03  0.88930787230E+02 0.  0.
        -11    1    3    3    0    0  0.67185528353E+01 -0.29441493248E+02 -0.51218555272E+01  0.30629624241E+02  0.51100000000E-03 0.  1.
         11    1    3    3    0    0 -0.67185528353E+01  0.29441493248E+02 -0.11457500778E+03  0.11848785966E+03  0.51100000000E-03 0. -1.
<mgrwt>
<rscale>  0 0.88930787E+02</rscale>
<asrwt>0</asrwt>
<pdfrwt beam="2">  1        4 0.20678026E-01 0.88930787E+02</pdfrwt>
<pdfrwt beam="1">  1       -4 0.22631247E-02 0.88930787E+02</pdfrwt>
<totfact> 0.25358298E+04</totfact>
</mgrwt>
</event>
<event>
 5    1  0.1133829E+000  0.9323259E+02  0.7818608E-02  0.1295207E+00
          4   -1    0    0  501    0  0.00000000000E+00  0.00000000000E+00  0.96618983531E+01  0.97656889048E+01  0.14200000000E+01 0. -1.
         -4   -1    0    0    0  501 -0.00000000000E+00 -0.00000000000E+00 -0.22360456515E+03  0.22360907396E+03  0.14200000000E+01 0.  1.
         23    2    1    2    0    0  0.00000000000E+00  0.00000000000E+00 -0.21394266680E+03  0.23337476287E+03  0.93232586926E+02 0.  0.
        -11    1    3    3    0    0 -0.40125225787E+02  0.17408964974E+02 -0.14733125243E+03  0.15368670648E+03  0.51100000000E-03 0.  1.
         11    1    3    3    0    0  0.40125225787E+02 -0.17408964974E+02 -0.66611414377E+02  0.79688056391E+02  0.51100000000E-03 0. -1.
<mgrwt>
<rscale>  0 0.93232587E+02</rscale>
<asrwt>0</asrwt>
<pdfrwt beam="1">  1        4 0.14947768E-02 0.93232587E+02</pdfrwt>
<pdfrwt beam="2">  1       -4 0.34409029E-01 0.93232587E+02</pdfrwt>
<totfact> 0.18904972E+04</totfact>
</mgrwt>
</event>
<event>
 5    1  0.1133829E+000  0.9075362E+02  0.7818608E-02  0.1301037E+00
          4   -1    0    0  501    0  0.00000000000E+00  0.00000000000E+00  0.27509227473E+02  0.27545852613E+02  0.14200000000E+01 0. -1.
         -4   -1    0    0    0  501 -0.00000000000E+00 -0.00000000000E+00 -0.74756437306E+02  0.74769922553E+02  0.14200000000E+01 0.  1.
         23    2    1    2    0    0  0.00000000000E+00  0.00000000000E+00 -0.47247209833E+02  0.10231577517E+03  0.90753617068E+02 0.  0.
        -11    1    3    3    0    0 -0.41079562896E+02 -0.18904360704E+02 -0.27864405375E+02  0.53116197422E+02  0.51100000000E-03 0. -1.
         11    1    3    3    0    0  0.41079562896E+02  0.18904360704E+02 -0.19382804458E+02  0.49199577745E+02  0.51100000000E-03 0.  1.
<mgrwt>
<rscale>  0 0.90753617E+02</rscale>
<asrwt>0</asrwt>
<pdfrwt beam="1">  1        4 0.42360435E-02 0.90753617E+02</pdfrwt>
<pdfrwt beam="2">  1       -4 0.11504845E-01 0.90753617E+02</pdfrwt>
<totfact> 0.26649249E+04</totfact>
</mgrwt>
</event>
<event>
 5    1  0.1133829E+000  0.9076497E+02  0.7818608E-02  0.1301010E+00
         -4   -1    0    0    0  501 -0.00000000000E+00  0.00000000000E+00  0.40359099558E+02  0.40384072567E+02  0.14200000000E+01 0.  1.
          4   -1    0    0  501    0  0.00000000000E+00 -0.00000000000E+00 -0.50980467111E+02  0.51000239478E+02  0.14200000000E+01 0. -1.
         23    2    1    2    0    0  0.00000000000E+00  0.00000000000E+00 -0.10621367553E+02  0.91384312046E+02  0.90764965925E+02 0.  0.
        -11    1    3    3    0    0  0.34162909309E+02  0.29064139763E+02  0.16459623663E+01  0.44883602629E+02  0.51100000000E-03 0.  1.
         11    1    3    3    0    0 -0.34162909309E+02 -0.29064139763E+02 -0.12267329919E+02  0.46500709416E+02  0.51100000000E-03 0. -1.
<mgrwt>
<rscale>  0 0.90764966E+02</rscale>
<asrwt>0</asrwt>
<pdfrwt beam="2">  1        4 0.78465907E-02 0.90764966E+02</pdfrwt>
<pdfrwt beam="1">  1       -4 0.62125342E-02 0.90764966E+02</pdfrwt>
<totfact> 0.27336768E+04</totfact>
</mgrwt>
</event>
<event>
 4    1  0.1133829E+000  0.1732790E+03  0.7818608E-02  0.1174471E+00
         -4   -1    0    0    0  501 -0.00000000000E+00  0.00000000000E+00  0.35243357645E+02  0.35271952853E+02  0.14200000000E+01 0.  1.
          4   -1    0    0  501    0  0.00000000000E+00 -0.00000000000E+00 -0.21287032020E+03  0.21287505636E+03  0.14200000000E+01 0. -1.
        -11    1    1    2    0    0  0.50774014810E+02 -0.13403344622E+02  0.98719043017E+01  0.53433179971E+02  0.51100000000E-03 0.  1.
         11    1    1    2    0    0 -0.50774014810E+02  0.13403344622E+02 -0.18749886686E+03  0.19471382925E+03  0.51100000000E-03 0. -1.
<mgrwt>
<rscale>  0 0.17327897E+03</rscale>
<asrwt>0</asrwt>
<pdfrwt beam="2">  1        4 0.32751843E-01 0.17327897E+03</pdfrwt>
<pdfrwt beam="1">  1       -4 0.54246191E-02 0.17327897E+03</pdfrwt>
<totfact> 0.32561031E+03</totfact>
</mgrwt>
</event>
<event>
 5    1  0.1133829E+000  0.9069806E+02  0.7818608E-02  0.1301170E+00
          4   -1    0    0  501    0  0.00000000000E+00  0.00000000000E+00  0.15791093159E+02  0.15854810726E+02  0.14200000000E+01 0. -1.
         -4   -1    0    0    0  501 -0.00000000000E+00 -0.00000000000E+00 -0.12990400983E+03  0.12991177072E+03  0.14200000000E+01 0.  1.
         23    2    1    2    0    0  0.00000000000E+00  0.00000000000E+00 -0.11411291667E+03  0.14576658144E+03  0.90698062348E+02 0.  0.
        -11    1    3    3    0    0 -0.44295929846E+02 -0.23836583879E+01 -0.72194825966E+02  0.84734314919E+02  0.51100000000E-03 0.  1.
         11    1    3    3    0    0  0.44295929846E+02  0.23836583879E+01 -0.41918090708E+02  0.61032266524E+02  0.51100000000E-03 0. -1.
<mgrwt>
<rscale>  0 0.90698062E+02</rscale>
<asrwt>0</asrwt>
<pdfrwt beam="1">  1        4 0.24348974E-02 0.90698062E+02</pdfrwt>
<pdfrwt beam="2">  1       -4 0.19990730E-01 0.90698062E+02</pdfrwt>
<totfact> 0.24227983E+04</totfact>
</mgrwt>
</event>
<event>
 5    1  0.1133829E+000  0.9410921E+02  0.7818608E-02  0.1293195E+00
         -4   -1    0    0    0  501 -0.00000000000E+00  0.00000000000E+00  0.61486528963E+01  0.63104938348E+01  0.14200000000E+01 0.  1.
          4   -1    0    0  501    0  0.00000000000E+00 -0.00000000000E+00 -0.35526007902E+03  0.35526291693E+03  0.14200000000E+01 0. -1.
         23    2    1    2    0    0  0.00000000000E+00  0.00000000000E+00 -0.34911142612E+03  0.36157341076E+03  0.94109210610E+02 0.  0.
        -11    1    3    3    0    0 -0.36592125060E+02 -0.26495199715E+02 -0.22511302211E+03  0.22960150685E+03  0.51100000000E-03 0. -1.
         11    1    3    3    0    0  0.36592125060E+02  0.26495199715E+02 -0.12399840402E+03  0.13197190392E+03  0.51100000000E-03 0.  1.
<mgrwt>
<rscale>  0 0.94109211E+02</rscale>
<asrwt>0</asrwt>
<pdfrwt beam="2">  1        4 0.54668049E-01 0.94109211E+02</pdfrwt>
<pdfrwt beam="1">  1       -4 0.95861448E-03 0.94109211E+02</pdfrwt>
<totfact> 0.14794221E+04</totfact>
</mgrwt>
</event>
<event>
 5    1  0.1133829E+000  0.8978279E+02  0.7818608E-02  0.1303379E+00
          4   -1    0    0  501    0  0.00000000000E+00  0.00000000000E+00  0.98477682248E+02  0.98487919568E+02  0.14200000000E+01 0. -1.
         -4   -1    0    0    0  501 -0.00000000000E+00 -0.00000000000E+00 -0.20427947669E+02  0.20477242148E+02  0.14200000000E+01 0.  1.
         23    2    1    2    0    0  0.00000000000E+00  0.00000000000E+00  0.78049734579E+02  0.11896516172E+03  0.89782785846E+02 0.  0.
        -11    1    3    3    0    0  0.12423881779E+00 -0.30301439441E+02 -0.48624306367E+01  0.30689345048E+02  0.51100000000E-03 0.  1.
         11    1    3    3    0    0 -0.12423881779E+00  0.30301439441E+02  0.82912165215E+02  0.88275816668E+02  0.51100000000E-03 0. -1.
<mgrwt>
<rscale>  0 0.89782786E+02</rscale>
<asrwt>0</asrwt>
<pdfrwt beam="1">  1        4 0.15154992E-01 0.89782786E+02</pdfrwt>
<pdfrwt beam="2">  1       -4 0.31473405E-02 0.89782786E+02</pdfrwt>
<totfact> 0.26405430E+04</totfact>
</mgrwt>
</event>
<event>
 5    1  0.1133829E+000  0.8992537E+02  0.7818608E-02  0.1303033E+00
         -4   -1    0    0    0  501 -0.00000000000E+00  0.00000000000E+00  0.36983554114E+02  0.37010804840E+02  0.14200000000E+01 0.  1.
          4   -1    0    0  501    0  0.00000000000E+00 -0.00000000000E+00 -0.54606685320E+02  0.54625145141E+02  0.14200000000E+01 0. -1.
         23    2    1    2    0    0  0.00000000000E+00  0.00000000000E+00 -0.17623131207E+02  0.91635949981E+02  0.89925372256E+02 0.  0.
        -11    1    3    3    0    0 -0.28583385123E+02 -0.17533729527E+01  0.26511320295E+02  0.39024791170E+02  0.51100000000E-03 0.  1.
         11    1    3    3    0    0  0.28583385123E+02  0.17533729527E+01 -0.44134451502E+02  0.52611158811E+02  0.51100000000E-03 0. -1.
<mgrwt>
<rscale>  0 0.89925372E+02</rscale>
<asrwt>0</asrwt>
<pdfrwt beam="2">  1        4 0.84045447E-02 0.89925372E+02</pdfrwt>
<pdfrwt beam="1">  1       -4 0.56932938E-02 0.89925372E+02</pdfrwt>
<totfact> 0.28015762E+04</totfact>
</mgrwt>
</event>
<event>
 5    1  0.1133829E+000  0.9277792E+02  0.7818608E-02  0.1296261E+00
         -4   -1    0    0    0  501 -0.00000000000E+00  0.00000000000E+00  0.18727570033E+03  0.18728108376E+03  0.14200000000E+01 0.  1.
          4   -1    0    0  501    0  0.00000000000E+00 -0.00000000000E+00 -0.11441294521E+02  0.11529077167E+02  0.14200000000E+01 0. -1.
         23    2    1    2    0    0  0.00000000000E+00  0.00000000000E+00  0.17583440581E+03  0.19881016093E+03  0.92777916670E+02 0.  0.
        -11    1    3    3    0    0  0.23003403712E+02  0.26633560231E+02  0.15268097757E+03  0.15668434518E+03  0.51100000000E-03 0.  1.
         11    1    3    3    0    0 -0.23003403712E+02 -0.26633560231E+02  0.23153428246E+02  0.42125815752E+02  0.51100000000E-03 0. -1.
<mgrwt>
<rscale>  0 0.92777917E+02</rscale>
<asrwt>0</asrwt>
<pdfrwt beam="2">  1        4 0.17673660E-02 0.92777917E+02</pdfrwt>
<pdfrwt beam="1">  1       -4 0.28818810E-01 0.92777917E+02</pdfrwt>
<totfact> 0.20457080E+04</totfact>
</mgrwt>
</event>
<event>
 5    1  0.1133829E+000  0.8990608E+02  0.7818608E-02  0.1303079E+00
          4   -1    0    0  501    0  0.00000000000E+00  0.00000000000E+00  0.13138682850E+03  0.13139450180E+03  0.14200000000E+01 0. -1.
         -4   -1    0    0    0  501 -0.00000000000E+00 -0.00000000000E+00 -0.15339436573E+02  0.15405022375E+02  0.14200000000E+01 0.  1.
         23    2    1    2    0    0  0.00000000000E+00  0.00000000000E+00  0.11604739193E+03  0.14679952417E+03  0.89906079467E+02 0.  0.
        -11    1    3    3    0    0 -0.35627128932E+02  0.58514163349E+01  0.10175265798E+03  0.10796821196E+03  0.51100000000E-03 0. -1.
         11    1    3    3    0    0  0.35627128932E+02 -0.58514163349E+01  0.14294733949E+02  0.38831312211E+02  0.51100000000E-03 0.  1.
<mgrwt>
<rscale>  0 0.89906079E+02</rscale>
<asrwt>0</asrwt>
<pdfrwt beam="1">  1        4 0.20218993E-01 0.89906079E+02</pdfrwt>
<pdfrwt beam="2">  1       -4 0.23655487E-02 0.89906079E+02</pdfrwt>
<totfact> 0.24750122E+04</totfact>
</mgrwt>
</event>
<event>
 5    1  0.1133829E+000  0.9139750E+02  0.7818608E-02  0.1299502E+00
          4   -1    0    0  501    0  0.00000000000E+00  0.00000000000E+00  0.16430384078E+03  0.16430997686E+03  0.14200000000E+01 0. -1.
         -4   -1    0    0    0  501 -0.00000000000E+00 -0.00000000000E+00 -0.12664395255E+02  0.12743755615E+02  0.14200000000E+01 0.  1.
         23    2    1    2    0    0  0.00000000000E+00  0.00000000000E+00  0.15163944552E+03  0.17705373247E+03  0.91397498563E+02 0.  0.
        -11    1    3    3    0    0 -0.10613728514E+02  0.37823523076E+02  0.30591337742E+02  0.49790562118E+02  0.51100000000E-03 0.  1.
         11    1    3    3    0    0  0.10613728514E+02 -0.37823523076E+02  0.12104810778E+03  0.12726317035E+03  0.51100000000E-03 0. -1.
<mgrwt>
<rscale>  0 0.91397499E+02</rscale>
<asrwt>0</asrwt>
<pdfrwt beam="1">  1        4 0.25284091E-01 0.91397499E+02</pdfrwt>
<pdfrwt beam="2">  1       -4 0.19549451E-02 0.91397499E+02</pdfrwt>
<totfact> 0.22239048E+04</totfact>
</mgrwt>
</event>
<event>
 5    1  0.1133829E+000  0.9213922E+02  0.7818608E-02  0.1297752E+00
          4   -1    0    0  501    0  0.00000000000E+00  0.00000000000E+00  0.18146375226E+02  0.18201849737E+02  0.14200000000E+01 0. -1.
         -4   -1    0    0    0  501 -0.00000000000E+00 -0.00000000000E+00 -0.11672217638E+03  0.11673081366E+03  0.14200000000E+01 0.  1.
         23    2    1    2    0    0  0.00000000000E+00  0.00000000000E+00 -0.98575801151E+02  0.13493266340E+03  0.92139215752E+02 0.  0.
        -11    1    3    3    0    0  0.26941780520E+02  0.44569272695E+01 -0.10362417738E+03  0.10716199828E+03  0.51100000000E-03 0.  1.
         11    1    3    3    0    0 -0.26941780520E+02 -0.44569272695E+01  0.50483762264E+01  0.27770665118E+02  0.51100000000E-03 0. -1.
<mgrwt>
<rscale>  0 0.92139216E+02</rscale>
<asrwt>0</asrwt>
<pdfrwt beam="1">  1        4 0.27966818E-02 0.92139216E+02</pdfrwt>
<pdfrwt beam="2">  1       -4 0.17962189E-01 0.92139216E+02</pdfrwt>
<totfact> 0.23768245E+04</totfact>
</mgrwt>
</event>
<event>
 5    1  0.1133829E+000  0.9157269E+02  0.7818608E-02  0.1299087E+00
          4   -1    0    0  501    0  0.00000000000E+00  0.00000000000E+00  0.14139778506E+02  0.14210902019E+02  0.14200000000E+01 0. -1.
         -4   -1    0    0    0  501 -0.00000000000E+00 -0.00000000000E+00 -0.14781533485E+03  0.14782215536E+03  0.14200000000E+01 0.  1.
         23    2    1    2    0    0  0.00000000000E+00  0.00000000000E+00 -0.13367555634E+03  0.16203305738E+03  0.91572688731E+02 0.  0.
        -11    1    3    3    0    0  0.32561742627E+02 -0.28451007084E+02 -0.93477362464E+02  0.10299390361E+03  0.51100000000E-03 0.  1.
         11    1    3    3    0    0 -0.32561742627E+02  0.28451007084E+02 -0.40198193875E+02  0.59039153772E+02  0.51100000000E-03 0. -1.
<mgrwt>
<rscale>  0 0.91572689E+02</rscale>
<asrwt>0</asrwt>
<pdfrwt beam="1">  1        4 0.21813463E-02 0.91572689E+02</pdfrwt>
<pdfrwt beam="2">  1       -4 0.22746815E-01 0.91572689E+02</pdfrwt>
<totfact> 0.22815522E+04</totfact>
</mgrwt>
</event>
<event>
 5    1  0.1133829E+000  0.9376660E+02  0.7818608E-02  0.1293978E+00
          4   -1    0    0  501    0  0.00000000000E+00  0.00000000000E+00  0.10739351325E+03  0.10740290074E+03  0.14200000000E+01 0. -1.
         -4   -1    0    0    0  501 -0.00000000000E+00 -0.00000000000E+00 -0.20432267707E+02  0.20481551789E+02  0.14200000000E+01 0.  1.
         23    2    1    2    0    0  0.00000000000E+00  0.00000000000E+00  0.86961245540E+02  0.12788445253E+03  0.93766598387E+02 0.  0.
        -11    1    3    3    0    0  0.45864064072E+02  0.46755730136E+01  0.55107104759E+02  0.71848217455E+02  0.51100000000E-03 0. -1.
         11    1    3    3    0    0 -0.45864064072E+02 -0.46755730136E+01  0.31854140781E+02  0.56036235075E+02  0.51100000000E-03 0.  1.
<mgrwt>
<rscale>  0 0.93766598E+02</rscale>
<asrwt>0</asrwt>
<pdfrwt beam="1">  1        4 0.16526592E-01 0.93766598E+02</pdfrwt>
<pdfrwt beam="2">  1       -4 0.31479390E-02 0.93766598E+02</pdfrwt>
<totfact> 0.23018874E+04</totfact>
</mgrwt>
</event>
<event>
 5    1  0.1133829E+000  0.9243620E+02  0.7818608E-02  0.1297057E+00
         -4   -1    0    0    0  501 -0.00000000000E+00  0.00000000000E+00  0.10936952803E+03  0.10937874593E+03  0.14200000000E+01 0.  1.
          4   -1    0    0  501    0  0.00000000000E+00 -0.00000000000E+00 -0.19495284657E+02  0.19546931316E+02  0.14200000000E+01 0. -1.
         23    2    1    2    0    0  0.00000000000E+00  0.00000000000E+00  0.89874243375E+02  0.12892567725E+03  0.92436197629E+02 0.  0.
        -11    1    3    3    0    0  0.23662622421E+02  0.63121720418E+01  0.99606275593E+02  0.10257277101E+03  0.51100000000E-03 0.  1.
         11    1    3    3    0    0 -0.23662622421E+02 -0.63121720418E+01 -0.97320322181E+01  0.26352906236E+02  0.51100000000E-03 0. -1.
<mgrwt>
<rscale>  0 0.92436198E+02</rscale>
<asrwt>0</asrwt>
<pdfrwt beam="2">  1        4 0.30039565E-02 0.92436198E+02</pdfrwt>
<pdfrwt beam="1">  1       -4 0.16830763E-01 0.92436198E+02</pdfrwt>
<totfact> 0.23873499E+04</totfact>
</mgrwt>
</event>
<event>
 5    1  0.1133829E+000  0.9283522E+02  0.7818608E-02  0.1296127E+00
         -4   -1    0    0    0  501 -0.00000000000E+00  0.00000000000E+00  0.55721594889E+02  0.55739685476E+02  0.14200000000E+01 0.  1.
          4   -1    0    0  501    0  0.00000000000E+00 -0.00000000000E+00 -0.38629721719E+02  0.38655811983E+02  0.14200000000E+01 0. -1.
         23    2    1    2    0    0  0.00000000000E+00  0.00000000000E+00  0.17091873170E+02  0.94395497459E+02  0.92835218598E+02 0.  0.
        -11    1    3    3    0    0 -0.21618250793E+02 -0.40662355228E+02  0.26328256862E+01  0.46127081757E+02  0.51100000000E-03 0.  1.
         11    1    3    3    0    0  0.21618250793E+02  0.40662355228E+02  0.14459047484E+02  0.48268415703E+02  0.51100000000E-03 0. -1.
<mgrwt>
<rscale>  0 0.92835219E+02</rscale>
<asrwt>0</asrwt>
<pdfrwt beam="2">  1        4 0.59464327E-02 0.92835219E+02</pdfrwt>
<pdfrwt beam="1">  1       -4 0.85759516E-02 0.92835219E+02</pdfrwt>
<totfact> 0.25527137E+04</totfact>
</mgrwt>
</event>
<event>
 5    1  0.1133829E+000  0.9150689E+02  0.7818608E-02  0.1299243E+00
         -4   -1    0    0    0  501 -0.00000000000E+00  0.00000000000E+00  0.27347564638E+02  0.27384405994E+02  0.14200000000E+01 0.  1.
          4   -1    0    0  501    0  0.00000000000E+00 -0.00000000000E+00 -0.76452171261E+02  0.76465357454E+02  0.14200000000E+01 0. -1.
         23    2    1    2    0    0  0.00000000000E+00  0.00000000000E+00 -0.49104606623E+02  0.10384976345E+03  0.91506890323E+02 0.  0.
        -11    1    3    3    0    0  0.31371518839E+02 -0.23858797332E+02 -0.50923743741E+02  0.64394425855E+02  0.51100000000E-03 0.  1.
         11    1    3    3    0    0 -0.31371518839E+02  0.23858797332E+02  0.18191371176E+01  0.39455337592E+02  0.51100000000E-03 0. -1.
<mgrwt>
<rscale>  0 0.91506890E+02</rscale>
<asrwt>0</asrwt>
<pdfrwt beam="2">  1        4 0.11765721E-01 0.91506890E+02</pdfrwt>
<pdfrwt beam="1">  1       -4 0.42111659E-02 0.91506890E+02</pdfrwt>
<totfact> 0.25966196E+04</totfact>
</mgrwt>
</event>
<event>
 5    1  0.1133829E+000  0.9246480E+02  0.7818608E-02  0.1296990E+00
          4   -1    0    0  501    0  0.00000000000E+00  0.00000000000E+00  0.10473441962E+03  0.10474404543E+03  0.14200000000E+01 0. -1.
         -4   -1    0    0    0  501 -0.00000000000E+00 -0.00000000000E+00 -0.20372861435E+02  0.20422288878E+02  0.14200000000E+01 0.  1.
         23    2    1    2    0    0  0.00000000000E+00  0.00000000000E+00  0.84361558181E+02  0.12516633430E+03  0.92464797326E+02 0.  0.
        -11    1    3    3    0    0  0.11608208026E+02 -0.21128553531E+02 -0.11220709512E+02  0.26590798975E+02  0.51100000000E-03 0.  1.
         11    1    3    3    0    0 -0.11608208026E+02  0.21128553531E+02  0.95582267694E+02  0.98575535330E+02  0.51100000000E-03 0. -1.
<mgrwt>
<rscale>  0 0.92464797E+02</rscale>
<asrwt>0</asrwt>
<pdfrwt beam="1">  1        4 0.16117530E-01 0.92464797E+02</pdfrwt>
<pdfrwt beam="2">  1       -4 0.31388289E-02 0.92464797E+02</pdfrwt>
<totfact> 0.24052036E+04</totfact>
</mgrwt>
</event>
<event>
 5    1  0.1133829E+000  0.9141703E+02  0.7818608E-02  0.1299456E+00
          4   -1    0    0  501    0  0.00000000000E+00  0.00000000000E+00  0.90917485172E+02  0.90928573672E+02  0.14200000000E+01 0. -1.
         -4   -1    0    0    0  501 -0.00000000000E+00 -0.00000000000E+00 -0.22945392274E+02  0.22989289389E+02  0.14200000000E+01 0.  1.
         23    2    1    2    0    0  0.00000000000E+00  0.00000000000E+00  0.67972092898E+02  0.11391786306E+03  0.91417034034E+02 0.  0.
        -11    1    3    3    0    0  0.13605510426E+02  0.33582985496E+02  0.68706961290E+02  0.77676079708E+02  0.51100000000E-03 0. -1.
         11    1    3    3    0    0 -0.13605510426E+02 -0.33582985496E+02 -0.73486839238E+00  0.36241783353E+02  0.51100000000E-03 0.  1.
<mgrwt>
<rscale>  0 0.91417034E+02</rscale>
<asrwt>0</asrwt>
<pdfrwt beam="1">  1        4 0.13991535E-01 0.91417034E+02</pdfrwt>
<pdfrwt beam="2">  1       -4 0.35342899E-02 0.91417034E+02</pdfrwt>
<totfact> 0.25440304E+04</totfact>
</mgrwt>
</event>
<event>
 5    1  0.1133829E+000  0.9008031E+02  0.7818608E-02  0.1302657E+00
         -4   -1    0    0    0  501 -0.00000000000E+00  0.00000000000E+00  0.65610790979E+02  0.65626155555E+02  0.14200000000E+01 0. -1.
          4   -1    0    0  501    0  0.00000000000E+00 -0.00000000000E+00 -0.30883628741E+02  0.30916256633E+02  0.14200000000E+01 0.  1.
         23    2    1    2    0    0  0.00000000000E+00  0.00000000000E+00  0.34727162239E+02  0.96542412188E+02  0.90080306138E+02 0.  0.
        -11    1    3    3    0    0  0.41479159987E+02 -0.11430549292E+02  0.30874459262E+01  0.43135953600E+02  0.51100000000E-03 0.  1.
         11    1    3    3    0    0 -0.41479159987E+02  0.11430549292E+02  0.31639716313E+02  0.53406458588E+02  0.51100000000E-03 0. -1.
<mgrwt>
<rscale>  0 0.90080306E+02</rscale>
<asrwt>0</asrwt>
<pdfrwt beam="2">  1        4 0.47550193E-02 0.90080306E+02</pdfrwt>
<pdfrwt beam="1">  1       -4 0.10097659E-01 0.90080306E+02</pdfrwt>
<totfact> 0.27561662E+04</totfact>
</mgrwt>
</event>
<event>
 5    1  0.1133829E+000  0.9056838E+02  0.7818608E-02  0.1301481E+00
          4   -1    0    0  501    0  0.00000000000E+00  0.00000000000E+00  0.14473523880E+03  0.14474220446E+03  0.14200000000E+01 0. -1.
         -4   -1    0    0    0  501 -0.00000000000E+00 -0.00000000000E+00 -0.14125434011E+02  0.14196629389E+02  0.14200000000E+01 0.  1.
         23    2    1    2    0    0  0.00000000000E+00  0.00000000000E+00  0.13060980479E+03  0.15893883385E+03  0.90568381883E+02 0.  0.
        -11    1    3    3    0    0 -0.28861838148E+02  0.33168513518E+02  0.84327769182E+02  0.95101675305E+02  0.51100000000E-03 0. -1.
         11    1    3    3    0    0  0.28861838148E+02 -0.33168513518E+02  0.46282035610E+02  0.63837158542E+02  0.51100000000E-03 0.  1.
<mgrwt>
<rscale>  0 0.90568382E+02</rscale>
<asrwt>0</asrwt>
<pdfrwt beam="1">  1        4 0.22272973E-01 0.90568382E+02</pdfrwt>
<pdfrwt beam="2">  1       -4 0.21791561E-02 0.90568382E+02</pdfrwt>
<totfact> 0.23653603E+04</totfact>
</mgrwt>
</event>
<event>
 5    1  0.1133829E+000  0.9183744E+02  0.7818608E-02  0.1298462E+00
         -4   -1    0    0    0  501 -0.00000000000E+00  0.00000000000E+00  0.11084113695E+03  0.11085023247E+03  0.14200000000E+01 0.  1.
          4   -1    0    0  501    0  0.00000000000E+00 -0.00000000000E+00 -0.18986589936E+02  0.19039616524E+02  0.14200000000E+01 0. -1.
         23    2    1    2    0    0  0.00000000000E+00  0.00000000000E+00  0.91854547010E+02  0.12988984900E+03  0.91837438260E+02 0.  0.
        -11    1    3    3    0    0  0.36584541560E+02 -0.21383163873E+02  0.70944014993E+02  0.82636079541E+02  0.51100000000E-03 0. -1.
         11    1    3    3    0    0 -0.36584541560E+02  0.21383163873E+02  0.20910532017E+02  0.47253769456E+02  0.51100000000E-03 0.  1.
<mgrwt>
<rscale>  0 0.91837438E+02</rscale>
<asrwt>0</asrwt>
<pdfrwt beam="2">  1        4 0.29257925E-02 0.91837438E+02</pdfrwt>
<pdfrwt beam="1">  1       -4 0.17057261E-01 0.91837438E+02</pdfrwt>
<totfact> 0.24245851E+04</totfact>
</mgrwt>
</event>
<event>
 5    1  0.1133829E+000  0.9239608E+02  0.7818608E-02  0.1297151E+00
         -4   -1    0    0    0  501 -0.00000000000E+00  0.00000000000E+00  0.16700104614E+02  0.16760366766E+02  0.14200000000E+01 0.  1.
          4   -1    0    0  501    0  0.00000000000E+00 -0.00000000000E+00 -0.12750475383E+03  0.12751266074E+03  0.14200000000E+01 0. -1.
         23    2    1    2    0    0  0.00000000000E+00  0.00000000000E+00 -0.11080464922E+03  0.14427302751E+03  0.92396083132E+02 0.  0.
        -11    1    3    3    0    0 -0.30984890755E+02 -0.68337712596E+01 -0.29712296547E+01  0.31868355632E+02  0.51100000000E-03 0.  1.
         11    1    3    3    0    0  0.30984890755E+02  0.68337712596E+01 -0.10783341956E+03  0.11240467188E+03  0.51100000000E-03 0. -1.
<mgrwt>
<rscale>  0 0.92396083E+02</rscale>
<asrwt>0</asrwt>
<pdfrwt beam="2">  1        4 0.19621359E-01 0.92396083E+02</pdfrwt>
<pdfrwt beam="1">  1       -4 0.25744907E-02 0.92396083E+02</pdfrwt>
<totfact> 0.23119618E+04</totfact>
</mgrwt>
</event>
<event>
 5    1  0.1133829E+000  0.8777522E+02  0.7818608E-02  0.1308331E+00
         -4   -1    0    0    0  501 -0.00000000000E+00  0.00000000000E+00  0.21727650637E+03  0.21728114649E+03  0.14200000000E+01 0.  1.
          4   -1    0    0  501    0  0.00000000000E+00 -0.00000000000E+00 -0.88032122503E+01  0.89170031919E+01  0.14200000000E+01 0. -1.
         23    2    1    2    0    0  0.00000000000E+00  0.00000000000E+00  0.20847329412E+03  0.22619814969E+03  0.87775216086E+02 0.  0.
        -11    1    3    3    0    0  0.37723306717E+02  0.17468352983E+02  0.14049215181E+03  0.14651360328E+03  0.51100000000E-03 0.  1.
         11    1    3    3    0    0 -0.37723306717E+02 -0.17468352983E+02  0.67981142318E+02  0.79684546411E+02  0.51100000000E-03 0. -1.
<mgrwt>
<rscale>  0 0.87775216E+02</rscale>
<asrwt>0</asrwt>
<pdfrwt beam="2">  1        4 0.13634506E-02 0.87775216E+02</pdfrwt>
<pdfrwt beam="1">  1       -4 0.33436262E-01 0.87775216E+02</pdfrwt>
<totfact> 0.22504141E+04</totfact>
</mgrwt>
</event>
<event>
 5    1  0.1133829E+000  0.9163421E+02  0.7818608E-02  0.1298942E+00
         -4   -1    0    0    0  501 -0.00000000000E+00  0.00000000000E+00  0.15553184820E+03  0.15553833034E+03  0.14200000000E+01 0.  1.
          4   -1    0    0  501    0  0.00000000000E+00 -0.00000000000E+00 -0.13452827223E+02  0.13527562984E+02  0.14200000000E+01 0. -1.
         23    2    1    2    0    0  0.00000000000E+00  0.00000000000E+00  0.14207902098E+03  0.16906589332E+03  0.91634208041E+02 0.  0.
        -11    1    3    3    0    0  0.27991676447E+02 -0.35096654983E+02  0.54140010142E+02  0.70331001981E+02  0.51100000000E-03 0. -1.
         11    1    3    3    0    0 -0.27991676447E+02  0.35096654983E+02  0.87939010837E+02  0.98734891343E+02  0.51100000000E-03 0.  1.
<mgrwt>
<rscale>  0 0.91634208E+02</rscale>
<asrwt>0</asrwt>
<pdfrwt beam="2">  1        4 0.20759132E-02 0.91634208E+02</pdfrwt>
<pdfrwt beam="1">  1       -4 0.23934224E-01 0.91634208E+02</pdfrwt>
<totfact> 0.22446715E+04</totfact>
</mgrwt>
</event>
<event>
 5    1  0.1133829E+000  0.9105309E+02  0.7818608E-02  0.1300321E+00
          4   -1    0    0  501    0  0.00000000000E+00  0.00000000000E+00  0.14536683051E+02  0.14605873960E+02  0.14200000000E+01 0. -1.
         -4   -1    0    0    0  501 -0.00000000000E+00 -0.00000000000E+00 -0.14217051448E+03  0.14217760579E+03  0.14200000000E+01 0.  1.
         23    2    1    2    0    0  0.00000000000E+00  0.00000000000E+00 -0.12763383143E+03  0.15678347975E+03  0.91053086694E+02 0.  0.
        -11    1    3    3    0    0 -0.28144534886E+02 -0.33128212291E+02 -0.40518971350E+02  0.59425418241E+02  0.51100000000E-03 0.  1.
         11    1    3    3    0    0  0.28144534886E+02  0.33128212291E+02 -0.87114860079E+02  0.97358061507E+02  0.51100000000E-03 0. -1.
<mgrwt>
<rscale>  0 0.91053087E+02</rscale>
<asrwt>0</asrwt>
<pdfrwt beam="1">  1        4 0.22422807E-02 0.91053087E+02</pdfrwt>
<pdfrwt beam="2">  1       -4 0.21878254E-01 0.91053087E+02</pdfrwt>
<totfact> 0.23422737E+04</totfact>
</mgrwt>
</event>
<event>
 5    1  0.1133829E+000  0.9189286E+02  0.7818608E-02  0.1298332E+00
         -4   -1    0    0    0  501 -0.00000000000E+00  0.00000000000E+00  0.11523719807E+03  0.11524594665E+03  0.14200000000E+01 0.  1.
          4   -1    0    0  501    0  0.00000000000E+00 -0.00000000000E+00 -0.18282405939E+02  0.18337468934E+02  0.14200000000E+01 0. -1.
         23    2    1    2    0    0  0.00000000000E+00  0.00000000000E+00  0.96954792136E+02  0.13358341559E+03  0.91892857186E+02 0.  0.
        -11    1    3    3    0    0  0.15596505723E+02 -0.26111141351E+02 -0.15858401428E+01  0.30455830027E+02  0.51100000000E-03 0. -1.
         11    1    3    3    0    0 -0.15596505723E+02  0.26111141351E+02  0.98540632279E+02  0.10312758556E+03  0.51100000000E-03 0.  1.
<mgrwt>
<rscale>  0 0.91892857E+02</rscale>
<asrwt>0</asrwt>
<pdfrwt beam="2">  1        4 0.28175863E-02 0.91892857E+02</pdfrwt>
<pdfrwt beam="1">  1       -4 0.17733709E-01 0.91892857E+02</pdfrwt>
<totfact> 0.24011405E+04</totfact>
</mgrwt>
</event>
<event>
 5    1  0.1133829E+000  0.9079931E+02  0.7818608E-02  0.1300928E+00
         -4   -1    0    0    0  501 -0.00000000000E+00  0.00000000000E+00  0.18714309380E+03  0.18714848105E+03  0.14200000000E+01 0.  1.
          4   -1    0    0  501    0  0.00000000000E+00 -0.00000000000E+00 -0.10962311752E+02  0.11053898812E+02  0.14200000000E+01 0. -1.
         23    2    1    2    0    0  0.00000000000E+00  0.00000000000E+00  0.17618078205E+03  0.19820237986E+03  0.90799313973E+02 0.  0.
        -11    1    3    3    0    0  0.29511773505E+02  0.19527150635E+02  0.15017255705E+03  0.15428561592E+03  0.51100000000E-03 0.  1.
         11    1    3    3    0    0 -0.29511773505E+02 -0.19527150635E+02  0.26008225002E+02  0.43916763944E+02  0.51100000000E-03 0. -1.
<mgrwt>
<rscale>  0 0.90799314E+02</rscale>
<asrwt>0</asrwt>
<pdfrwt beam="2">  1        4 0.16939691E-02 0.90799314E+02</pdfrwt>
<pdfrwt beam="1">  1       -4 0.28798704E-01 0.90799314E+02</pdfrwt>
<totfact> 0.21701060E+04</totfact>
</mgrwt>
</event>
<event>
 5    1  0.1133829E+000  0.8622395E+02  0.7818608E-02  0.1312262E+00
         -4   -1    0    0    0  501 -0.00000000000E+00  0.00000000000E+00  0.26018939991E+02  0.26057659876E+02  0.14200000000E+01 0.  1.
          4   -1    0    0  501    0  0.00000000000E+00 -0.00000000000E+00 -0.71335298947E+02  0.71349430802E+02  0.14200000000E+01 0. -1.
         23    2    1    2    0    0  0.00000000000E+00  0.00000000000E+00 -0.45316358956E+02  0.97407090679E+02  0.86223946358E+02 0.  0.
        -11    1    3    3    0    0  0.22915726030E+02 -0.12673198373E+02  0.16031354429E+02  0.30704149257E+02  0.51100000000E-03 0.  1.
         11    1    3    3    0    0 -0.22915726030E+02  0.12673198373E+02 -0.61347713385E+02  0.66702941422E+02  0.51100000000E-03 0. -1.
<mgrwt>
<rscale>  0 0.86223946E+02</rscale>
<asrwt>0</asrwt>
<pdfrwt beam="2">  1        4 0.10978727E-01 0.86223946E+02</pdfrwt>
<pdfrwt beam="1">  1       -4 0.40069794E-02 0.86223946E+02</pdfrwt>
<totfact> 0.30946102E+04</totfact>
</mgrwt>
</event>
<event>
 5    1  0.1133829E+000  0.9155329E+02  0.7818608E-02  0.1299133E+00
          4   -1    0    0  501    0  0.00000000000E+00  0.00000000000E+00  0.13277272659E+02  0.13352991023E+02  0.14200000000E+01 0. -1.
         -4   -1    0    0    0  501 -0.00000000000E+00 -0.00000000000E+00 -0.15729848923E+03  0.15730489857E+03  0.14200000000E+01 0.  1.
         23    2    1    2    0    0  0.00000000000E+00  0.00000000000E+00 -0.14402121658E+03  0.17065788960E+03  0.91553287531E+02 0.  0.
        -11    1    3    3    0    0 -0.26884640417E+02  0.36983275011E+02 -0.76159732456E+02  0.88830464194E+02  0.51100000000E-03 0. -1.
         11    1    3    3    0    0  0.26884640417E+02 -0.36983275011E+02 -0.67861484120E+02  0.81827425403E+02  0.51100000000E-03 0.  1.
<mgrwt>
<rscale>  0 0.91553288E+02</rscale>
<asrwt>0</asrwt>
<pdfrwt beam="1">  1        4 0.20489750E-02 0.91553288E+02</pdfrwt>
<pdfrwt beam="2">  1       -4 0.24206084E-01 0.91553288E+02</pdfrwt>
<totfact> 0.22427035E+04</totfact>
</mgrwt>
</event>
<event>
 5    1  0.1133829E+000  0.9524201E+02  0.7818608E-02  0.1290632E+00
          4   -1    0    0  501    0  0.00000000000E+00  0.00000000000E+00  0.10815539229E+03  0.10816471366E+03  0.14200000000E+01 0. -1.
         -4   -1    0    0    0  501 -0.00000000000E+00 -0.00000000000E+00 -0.20933329336E+02  0.20981436488E+02  0.14200000000E+01 0.  1.
         23    2    1    2    0    0  0.00000000000E+00  0.00000000000E+00  0.87222062958E+02  0.12914615015E+03  0.95242006660E+02 0.  0.
        -11    1    3    3    0    0  0.36726791951E+02 -0.29304980689E+02  0.33097094565E+02  0.57472226415E+02  0.51100000000E-03 0.  1.
         11    1    3    3    0    0 -0.36726791951E+02  0.29304980689E+02  0.54124968392E+02  0.71673923737E+02  0.51100000000E-03 0. -1.
<mgrwt>
<rscale>  0 0.95242007E+02</rscale>
<asrwt>0</asrwt>
<pdfrwt beam="1">  1        4 0.16643709E-01 0.95242007E+02</pdfrwt>
<pdfrwt beam="2">  1       -4 0.32249297E-02 0.95242007E+02</pdfrwt>
<totfact> 0.22002315E+04</totfact>
</mgrwt>
</event>
<event>
 5    1  0.1133829E+000  0.9094565E+02  0.7818608E-02  0.1300578E+00
         -4   -1    0    0    0  501 -0.00000000000E+00  0.00000000000E+00  0.10228126190E+03  0.10229111856E+03  0.14200000000E+01 0.  1.
          4   -1    0    0  501    0  0.00000000000E+00 -0.00000000000E+00 -0.20180802766E+02  0.20230699451E+02  0.14200000000E+01 0. -1.
         23    2    1    2    0    0  0.00000000000E+00  0.00000000000E+00  0.82100459139E+02  0.12252181801E+03  0.90945645848E+02 0.  0.
        -11    1    3    3    0    0 -0.38699820650E+00  0.25343198864E+02  0.91912096874E+02  0.95342860500E+02  0.51100000000E-03 0.  1.
         11    1    3    3    0    0  0.38699820650E+00 -0.25343198864E+02 -0.98116377346E+01  0.27178957514E+02  0.51100000000E-03 0. -1.
<mgrwt>
<rscale>  0 0.90945646E+02</rscale>
<asrwt>0</asrwt>
<pdfrwt beam="2">  1        4 0.31093352E-02 0.90945646E+02</pdfrwt>
<pdfrwt beam="1">  1       -4 0.15740175E-01 0.90945646E+02</pdfrwt>
<totfact> 0.25303486E+04</totfact>
</mgrwt>
</event>
<event>
 5    1  0.1133829E+000  0.9074821E+02  0.7818608E-02  0.1301050E+00
          4   -1    0    0  501    0  0.00000000000E+00  0.00000000000E+00  0.30739365871E+03  0.30739693853E+03  0.14200000000E+01 0. -1.
         -4   -1    0    0    0  501 -0.00000000000E+00 -0.00000000000E+00 -0.66190134453E+01  0.67696188216E+01  0.14200000000E+01 0.  1.
         23    2    1    2    0    0  0.00000000000E+00  0.00000000000E+00  0.30077464527E+03  0.31416655735E+03  0.90748214977E+02 0.  0.
        -11    1    3    3    0    0 -0.37887204563E+02  0.24574601815E+02  0.16565856529E+03  0.17170355727E+03  0.51100000000E-03 0. -1.
         11    1    3    3    0    0  0.37887204563E+02 -0.24574601815E+02  0.13511607998E+03  0.14246300008E+03  0.51100000000E-03 0.  1.
<mgrwt>
<rscale>  0 0.90748215E+02</rscale>
<asrwt>0</asrwt>
<pdfrwt beam="1">  1        4 0.47303167E-01 0.90748215E+02</pdfrwt>
<pdfrwt beam="2">  1       -4 0.10301471E-02 0.90748215E+02</pdfrwt>
<totfact> 0.17615467E+04</totfact>
</mgrwt>
</event>
<event>
 5    1  0.1133829E+000  0.9175685E+02  0.7818608E-02  0.1298652E+00
         -4   -1    0    0    0  501 -0.00000000000E+00  0.00000000000E+00  0.61133670491E+02  0.61150159997E+02  0.14200000000E+01 0.  1.
          4   -1    0    0  501    0  0.00000000000E+00 -0.00000000000E+00 -0.34394178752E+02  0.34423479371E+02  0.14200000000E+01 0. -1.
         23    2    1    2    0    0  0.00000000000E+00  0.00000000000E+00  0.26739491740E+02  0.95573639368E+02  0.91756853279E+02 0.  0.
        -11    1    3    3    0    0 -0.33709291845E+02 -0.15044064194E+02  0.41746133307E+02  0.55725935349E+02  0.51100000000E-03 0.  1.
         11    1    3    3    0    0  0.33709291845E+02  0.15044064194E+02 -0.15006641567E+02  0.39847704019E+02  0.51100000000E-03 0. -1.
<mgrwt>
<rscale>  0 0.91756853E+02</rscale>
<asrwt>0</asrwt>
<pdfrwt beam="2">  1        4 0.52949345E-02 0.91756853E+02</pdfrwt>
<pdfrwt beam="1">  1       -4 0.94087023E-02 0.91756853E+02</pdfrwt>
<totfact> 0.26278456E+04</totfact>
</mgrwt>
</event>
<event>
 5    1  0.1133829E+000  0.5926644E+02  0.7818608E-02  0.1400936E+00
          4   -1    0    0  501    0  0.00000000000E+00  0.00000000000E+00  0.43723912426E+02  0.43746964670E+02  0.14200000000E+01 0.  1.
         -4   -1    0    0    0  501 -0.00000000000E+00 -0.00000000000E+00 -0.20029976617E+02  0.20080248088E+02  0.14200000000E+01 0. -1.
         23    2    1    2    0    0  0.00000000000E+00  0.00000000000E+00  0.23693935809E+02  0.63827212758E+02  0.59266436491E+02 0.  0.
        -11    1    3    3    0    0  0.51763881532E+01  0.24674474291E+02  0.28617837242E+02  0.38139287940E+02  0.51100000000E-03 0. -1.
         11    1    3    3    0    0 -0.51763881532E+01 -0.24674474291E+02 -0.49239014339E+01  0.25687924818E+02  0.51100000000E-03 0.  1.
<mgrwt>
<rscale>  0 0.59266436E+02</rscale>
<asrwt>0</asrwt>
<pdfrwt beam="1">  1        4 0.67323960E-02 0.59266436E+02</pdfrwt>
<pdfrwt beam="2">  1       -4 0.30871752E-02 0.59266436E+02</pdfrwt>
<totfact> 0.90169751E+04</totfact>
</mgrwt>
</event>
<event>
 5    1  0.1133829E+000  0.9314725E+02  0.7818608E-02  0.1295404E+00
         -4   -1    0    0    0  501 -0.00000000000E+00  0.00000000000E+00  0.13215856466E+03  0.13216619316E+03  0.14200000000E+01 0.  1.
          4   -1    0    0  501    0  0.00000000000E+00 -0.00000000000E+00 -0.16374046873E+02  0.16435504586E+02  0.14200000000E+01 0. -1.
         23    2    1    2    0    0  0.00000000000E+00  0.00000000000E+00  0.11578451779E+03  0.14860169774E+03  0.93147249086E+02 0.  0.
        -11    1    3    3    0    0  0.32935068549E+02 -0.28389215566E+02  0.31271735603E+02  0.53559198544E+02  0.51100000000E-03 0. -1.
         11    1    3    3    0    0 -0.32935068549E+02  0.28389215566E+02  0.84512782187E+02  0.95042499199E+02  0.51100000000E-03 0.  1.
<mgrwt>
<rscale>  0 0.93147249E+02</rscale>
<asrwt>0</asrwt>
<pdfrwt beam="2">  1        4 0.25243984E-02 0.93147249E+02</pdfrwt>
<pdfrwt beam="1">  1       -4 0.20337402E-01 0.93147249E+02</pdfrwt>
<totfact> 0.22411627E+04</totfact>
</mgrwt>
</event>
<event>
 5    1  0.1133829E+000  0.9144158E+02  0.7818608E-02  0.1299398E+00
         -4   -1    0    0    0  501 -0.00000000000E+00  0.00000000000E+00  0.13606235973E+03  0.13606976937E+03  0.14200000000E+01 0.  1.
          4   -1    0    0  501    0  0.00000000000E+00 -0.00000000000E+00 -0.15322818650E+02  0.15388475278E+02  0.14200000000E+01 0. -1.
         23    2    1    2    0    0  0.00000000000E+00  0.00000000000E+00  0.12073954108E+03  0.15145824464E+03  0.91441582939E+02 0.  0.
        -11    1    3    3    0    0  0.62935591388E+01  0.44556542547E+02  0.73774495429E+02  0.86415106008E+02  0.51100000000E-03 0.  1.
         11    1    3    3    0    0 -0.62935591388E+01 -0.44556542547E+02  0.46965045652E+02  0.65043138637E+02  0.51100000000E-03 0. -1.
<mgrwt>
<rscale>  0 0.91441583E+02</rscale>
<asrwt>0</asrwt>
<pdfrwt beam="2">  1        4 0.23629771E-02 0.91441583E+02</pdfrwt>
<pdfrwt beam="1">  1       -4 0.20938292E-01 0.91441583E+02</pdfrwt>
<totfact> 0.23416379E+04</totfact>
</mgrwt>
</event>
<event>
 5    1  0.1133829E+000  0.9129243E+02  0.7818608E-02  0.1299752E+00
          4   -1    0    0  501    0  0.00000000000E+00  0.00000000000E+00  0.73553197537E+02  0.73566903346E+02  0.14200000000E+01 0. -1.
         -4   -1    0    0    0  501 -0.00000000000E+00 -0.00000000000E+00 -0.28293331584E+02  0.28328943011E+02  0.14200000000E+01 0.  1.
         23    2    1    2    0    0  0.00000000000E+00  0.00000000000E+00  0.45259865954E+02  0.10189584636E+03  0.91292431442E+02 0.  0.
        -11    1    3    3    0    0  0.37387464362E+02  0.25006620535E+02  0.31306031135E+02  0.54801652783E+02  0.51100000000E-03 0.  1.
         11    1    3    3    0    0 -0.37387464362E+02 -0.25006620535E+02  0.13953834818E+02  0.47094193574E+02  0.51100000000E-03 0. -1.
<mgrwt>
<rscale>  0 0.91292431E+02</rscale>
<asrwt>0</asrwt>
<pdfrwt beam="1">  1        4 0.11319670E-01 0.91292431E+02</pdfrwt>
<pdfrwt beam="2">  1       -4 0.43566140E-02 0.91292431E+02</pdfrwt>
<totfact> 0.26250980E+04</totfact>
</mgrwt>
</event>
<event>
 5    1  0.1133829E+000  0.9588688E+02  0.7818608E-02  0.1289191E+00
          4   -1    0    0  501    0  0.00000000000E+00  0.00000000000E+00  0.52508562000E+02  0.52527759169E+02  0.14200000000E+01 0. -1.
         -4   -1    0    0    0  501 -0.00000000000E+00 -0.00000000000E+00 -0.43736486117E+02  0.43759531737E+02  0.14200000000E+01 0.  1.
         23    2    1    2    0    0  0.00000000000E+00  0.00000000000E+00  0.87720758827E+01  0.96287290906E+02  0.95886876447E+02 0.  0.
        -11    1    3    3    0    0 -0.29932439151E+02  0.22825522332E+02 -0.25430004109E+02  0.45427309985E+02  0.51100000000E-03 0.  1.
         11    1    3    3    0    0  0.29932439151E+02 -0.22825522332E+02  0.34202079991E+02  0.50859980921E+02  0.51100000000E-03 0. -1.
<mgrwt>
<rscale>  0 0.95886876E+02</rscale>
<asrwt>0</asrwt>
<pdfrwt beam="1">  1        4 0.80814897E-02 0.95886876E+02</pdfrwt>
<pdfrwt beam="2">  1       -4 0.67319397E-02 0.95886876E+02</pdfrwt>
<totfact> 0.23266106E+04</totfact>
</mgrwt>
</event>
<event>
 5    1  0.1133829E+000  0.9182356E+02  0.7818608E-02  0.1298495E+00
          4   -1    0    0  501    0  0.00000000000E+00  0.00000000000E+00  0.10342307187E+03  0.10343281972E+03  0.14200000000E+01 0. -1.
         -4   -1    0    0    0  501 -0.00000000000E+00 -0.00000000000E+00 -0.20345796314E+02  0.20395289349E+02  0.14200000000E+01 0.  1.
         23    2    1    2    0    0  0.00000000000E+00  0.00000000000E+00  0.83077275556E+02  0.12382810907E+03  0.91823563868E+02 0.  0.
        -11    1    3    3    0    0  0.45208215750E+02  0.74888137699E+01  0.45359236015E+02  0.64477324658E+02  0.51100000000E-03 0. -1.
         11    1    3    3    0    0 -0.45208215750E+02 -0.74888137699E+01  0.37718039541E+02  0.59350784409E+02  0.51100000000E-03 0.  1.
<mgrwt>
<rscale>  0 0.91823564E+02</rscale>
<asrwt>0</asrwt>
<pdfrwt beam="1">  1        4 0.15915799E-01 0.91823564E+02</pdfrwt>
<pdfrwt beam="2">  1       -4 0.31346795E-02 0.91823564E+02</pdfrwt>
<totfact> 0.24582625E+04</totfact>
</mgrwt>
</event>
<event>
 5    1  0.1133829E+000  0.9082793E+02  0.7818608E-02  0.1300859E+00
         -4   -1    0    0    0  501 -0.00000000000E+00  0.00000000000E+00  0.12554181296E+03  0.12554984350E+03  0.14200000000E+01 0.  1.
          4   -1    0    0  501    0  0.00000000000E+00 -0.00000000000E+00 -0.16388958028E+02  0.16450360034E+02  0.14200000000E+01 0. -1.
         23    2    1    2    0    0  0.00000000000E+00  0.00000000000E+00  0.10915285494E+03  0.14200020353E+03  0.90827925565E+02 0.  0.
        -11    1    3    3    0    0  0.11272234722E+02  0.43705059991E+02  0.62429678172E+02  0.77036746176E+02  0.51100000000E-03 0. -1.
         11    1    3    3    0    0 -0.11272234722E+02 -0.43705059991E+02  0.46723176765E+02  0.64963457356E+02  0.51100000000E-03 0.  1.
<mgrwt>
<rscale>  0 0.90827926E+02</rscale>
<asrwt>0</asrwt>
<pdfrwt beam="2">  1        4 0.25267190E-02 0.90827926E+02</pdfrwt>
<pdfrwt beam="1">  1       -4 0.19319467E-01 0.90827926E+02</pdfrwt>
<totfact> 0.24330964E+04</totfact>
</mgrwt>
</event>
<event>
 5    1  0.1133829E+000  0.8631247E+02  0.7818608E-02  0.1312036E+00
         -4   -1    0    0    0  501 -0.00000000000E+00  0.00000000000E+00  0.50654178908E+02  0.50674078589E+02  0.14200000000E+01 0.  1.
          4   -1    0    0  501    0  0.00000000000E+00 -0.00000000000E+00 -0.36727309920E+02  0.36754750631E+02  0.14200000000E+01 0. -1.
         23    2    1    2    0    0  0.00000000000E+00  0.00000000000E+00  0.13926868988E+02  0.87428829221E+02  0.86312470125E+02 0.  0.
        -11    1    3    3    0    0  0.16297317692E+02 -0.19247223973E+02  0.42436409937E+02  0.49365039078E+02  0.51100000000E-03 0.  1.
         11    1    3    3    0    0 -0.16297317692E+02  0.19247223973E+02 -0.28509540949E+02  0.38063790142E+02  0.51100000000E-03 0. -1.
<mgrwt>
<rscale>  0 0.86312470E+02</rscale>
<asrwt>0</asrwt>
<pdfrwt beam="2">  1        4 0.56539970E-02 0.86312470E+02</pdfrwt>
<pdfrwt beam="1">  1       -4 0.77965921E-02 0.86312470E+02</pdfrwt>
<totfact> 0.31612013E+04</totfact>
</mgrwt>
</event>
<event>
 5    1  0.1133829E+000  0.9038100E+02  0.7818608E-02  0.1301932E+00
         -4   -1    0    0    0  501 -0.00000000000E+00  0.00000000000E+00  0.37126832220E+02  0.37153977858E+02  0.14200000000E+01 0.  1.
          4   -1    0    0  501    0  0.00000000000E+00 -0.00000000000E+00 -0.54949113032E+02  0.54967457854E+02  0.14200000000E+01 0. -1.
         23    2    1    2    0    0  0.00000000000E+00  0.00000000000E+00 -0.17822280812E+02  0.92121435712E+02  0.90381000351E+02 0.  0.
        -11    1    3    3    0    0 -0.35333605379E+02 -0.11381710372E+02  0.17356713319E+02  0.40978805468E+02  0.51100000000E-03 0.  1.
         11    1    3    3    0    0  0.35333605379E+02  0.11381710372E+02 -0.35178994131E+02  0.51142630245E+02  0.51100000000E-03 0. -1.
<mgrwt>
<rscale>  0 0.90381000E+02</rscale>
<asrwt>0</asrwt>
<pdfrwt beam="2">  1        4 0.84572090E-02 0.90381000E+02</pdfrwt>
<pdfrwt beam="1">  1       -4 0.57153196E-02 0.90381000E+02</pdfrwt>
<totfact> 0.27603461E+04</totfact>
</mgrwt>
</event>
<event>
 5    1  0.1133829E+000  0.8976488E+02  0.7818608E-02  0.1303422E+00
          4   -1    0    0  501    0  0.00000000000E+00  0.00000000000E+00  0.58844957377E+02  0.58862088042E+02  0.14200000000E+01 0. -1.
         -4   -1    0    0    0  501 -0.00000000000E+00 -0.00000000000E+00 -0.34196045088E+02  0.34225515331E+02  0.14200000000E+01 0.  1.
         23    2    1    2    0    0  0.00000000000E+00  0.00000000000E+00  0.24648912289E+02  0.93087603373E+02  0.89764876342E+02 0.  0.
        -11    1    3    3    0    0 -0.36974515272E+02  0.13530111745E+02  0.34668588628E+02  0.52460363525E+02  0.51100000000E-03 0. -1.
         11    1    3    3    0    0  0.36974515272E+02 -0.13530111745E+02 -0.10019676339E+02  0.40627239848E+02  0.51100000000E-03 0.  1.
<mgrwt>
<rscale>  0 0.89764876E+02</rscale>
<asrwt>0</asrwt>
<pdfrwt beam="1">  1        4 0.90566549E-02 0.89764876E+02</pdfrwt>
<pdfrwt beam="2">  1       -4 0.52645148E-02 0.89764876E+02</pdfrwt>
<totfact> 0.28053876E+04</totfact>
</mgrwt>
</event>
<event>
 5    1  0.1133829E+000  0.9521350E+02  0.7818608E-02  0.1290696E+00
          4   -1    0    0  501    0  0.00000000000E+00  0.00000000000E+00  0.12897833611E+03  0.12898615269E+03  0.14200000000E+01 0.  1.
         -4   -1    0    0    0  501 -0.00000000000E+00 -0.00000000000E+00 -0.17534912297E+02  0.17592315063E+02  0.14200000000E+01 0. -1.
         23    2    1    2    0    0  0.00000000000E+00  0.00000000000E+00  0.11144342382E+03  0.14657846776E+03  0.95213499558E+02 0.  0.
        -11    1    3    3    0    0  0.17808510661E+02 -0.27304910015E+02  0.23106707926E+01  0.32680886809E+02  0.51100000000E-03 0. -1.
         11    1    3    3    0    0 -0.17808510661E+02  0.27304910015E+02  0.10913275302E+03  0.11389758095E+03  0.51100000000E-03 0.  1.
<mgrwt>
<rscale>  0 0.95213500E+02</rscale>
<asrwt>0</asrwt>
<pdfrwt beam="1">  1        4 0.19847837E-01 0.95213500E+02</pdfrwt>
<pdfrwt beam="2">  1       -4 0.27026957E-02 0.95213500E+02</pdfrwt>
<totfact> 0.21209840E+04</totfact>
</mgrwt>
</event>
<event>
 5    1  0.1133829E+000  0.8709658E+02  0.7818608E-02  0.1310039E+00
         -4   -1    0    0    0  501 -0.00000000000E+00  0.00000000000E+00  0.21902203610E+02  0.21948187237E+02  0.14200000000E+01 0.  1.
          4   -1    0    0  501    0  0.00000000000E+00 -0.00000000000E+00 -0.86444720905E+02  0.86456383063E+02  0.14200000000E+01 0. -1.
         23    2    1    2    0    0  0.00000000000E+00  0.00000000000E+00 -0.64542517295E+02  0.10840457030E+03  0.87096580433E+02 0.  0.
        -11    1    3    3    0    0  0.61045944735E+01  0.25010078388E+02  0.11445541251E+02  0.28173933156E+02  0.51100000000E-03 0.  1.
         11    1    3    3    0    0 -0.61045944735E+01 -0.25010078388E+02 -0.75988058546E+02  0.80230637144E+02  0.51100000000E-03 0. -1.
<mgrwt>
<rscale>  0 0.87096580E+02</rscale>
<asrwt>0</asrwt>
<pdfrwt beam="2">  1        4 0.13303622E-01 0.87096580E+02</pdfrwt>
<pdfrwt beam="1">  1       -4 0.33740041E-02 0.87096580E+02</pdfrwt>
<totfact> 0.29352304E+04</totfact>
</mgrwt>
</event>
<event>
 5    1  0.1133829E+000  0.9792623E+02  0.7818608E-02  0.1284718E+00
          4   -1    0    0  501    0  0.00000000000E+00  0.00000000000E+00  0.11338885984E+02  0.11427455332E+02  0.14200000000E+01 0. -1.
         -4   -1    0    0    0  501 -0.00000000000E+00 -0.00000000000E+00 -0.21051702947E+03  0.21052181858E+03  0.14200000000E+01 0.  1.
         23    2    1    2    0    0  0.00000000000E+00  0.00000000000E+00 -0.19917814349E+03  0.22194927391E+03  0.97926234206E+02 0.  0.
        -11    1    3    3    0    0  0.20859636972E+02 -0.40990690273E+02 -0.13765172090E+03  0.14513220667E+03  0.51100000000E-03 0.  1.
         11    1    3    3    0    0 -0.20859636972E+02  0.40990690273E+02 -0.61526422582E+02  0.76817067242E+02  0.51100000000E-03 0. -1.
<mgrwt>
<rscale>  0 0.97926234E+02</rscale>
<asrwt>0</asrwt>
<pdfrwt beam="1">  1        4 0.17516256E-02 0.97926234E+02</pdfrwt>
<pdfrwt beam="2">  1       -4 0.32394414E-01 0.97926234E+02</pdfrwt>
<totfact> 0.16921010E+04</totfact>
</mgrwt>
</event>
<event>
 5    1  0.1133829E+000  0.9181338E+02  0.7818608E-02  0.1298519E+00
          4   -1    0    0  501    0  0.00000000000E+00  0.00000000000E+00  0.12522996127E+03  0.12523801180E+03  0.14200000000E+01 0. -1.
         -4   -1    0    0    0  501 -0.00000000000E+00 -0.00000000000E+00 -0.16789872606E+02  0.16849813712E+02  0.14200000000E+01 0.  1.
         23    2    1    2    0    0  0.00000000000E+00  0.00000000000E+00  0.10844008867E+03  0.14208782551E+03  0.91813383173E+02 0.  0.
        -11    1    3    3    0    0 -0.33516203903E+02  0.26022569433E+02  0.81331911672E+02  0.91735434269E+02  0.51100000000E-03 0. -1.
         11    1    3    3    0    0  0.33516203903E+02 -0.26022569433E+02  0.27108176993E+02  0.50352391245E+02  0.51100000000E-03 0.  1.
<mgrwt>
<rscale>  0 0.91813383E+02</rscale>
<asrwt>0</asrwt>
<pdfrwt beam="1">  1        4 0.19271377E-01 0.91813383E+02</pdfrwt>
<pdfrwt beam="2">  1       -4 0.25882875E-02 0.91813383E+02</pdfrwt>
<totfact> 0.23628634E+04</totfact>
</mgrwt>
</event>
<event>
 5    1  0.1133829E+000  0.9086652E+02  0.7818608E-02  0.1300767E+00
          4   -1    0    0  501    0  0.00000000000E+00  0.00000000000E+00  0.35303623666E+02  0.35332170100E+02  0.14200000000E+01 0. -1.
         -4   -1    0    0    0  501 -0.00000000000E+00 -0.00000000000E+00 -0.58408576015E+02  0.58425834629E+02  0.14200000000E+01 0.  1.
         23    2    1    2    0    0  0.00000000000E+00  0.00000000000E+00 -0.23104952349E+02  0.93758004729E+02  0.90866520940E+02 0.  0.
        -11    1    3    3    0    0 -0.11169109723E+02 -0.18017381180E+01 -0.56954789456E+02  0.58067575414E+02  0.51100000000E-03 0.  1.
         11    1    3    3    0    0  0.11169109723E+02  0.18017381180E+01  0.33849837107E+02  0.35690429315E+02  0.51100000000E-03 0. -1.
<mgrwt>
<rscale>  0 0.90866521E+02</rscale>
<asrwt>0</asrwt>
<pdfrwt beam="1">  1        4 0.54348502E-02 0.90866521E+02</pdfrwt>
<pdfrwt beam="2">  1       -4 0.89894583E-02 0.90866521E+02</pdfrwt>
<totfact> 0.27100441E+04</totfact>
</mgrwt>
</event>
<event>
 5    1  0.1133829E+000  0.9326126E+02  0.7818608E-02  0.1295141E+00
         -4   -1    0    0    0  501 -0.00000000000E+00  0.00000000000E+00  0.23623437500E+02  0.23666076974E+02  0.14200000000E+01 0.  1.
          4   -1    0    0  501    0  0.00000000000E+00 -0.00000000000E+00 -0.91913722120E+02  0.91924690448E+02  0.14200000000E+01 0. -1.
         23    2    1    2    0    0  0.00000000000E+00  0.00000000000E+00 -0.68290284620E+02  0.11559076742E+03  0.93261259587E+02 0.  0.
        -11    1    3    3    0    0  0.28478564378E+01 -0.28992890617E+02  0.10982992928E+02  0.31133970620E+02  0.51100000000E-03 0.  1.
         11    1    3    3    0    0 -0.28478564378E+01  0.28992890617E+02 -0.79273277547E+02  0.84456796802E+02  0.51100000000E-03 0. -1.
<mgrwt>
<rscale>  0 0.93261260E+02</rscale>
<asrwt>0</asrwt>
<pdfrwt beam="2">  1        4 0.14144696E-01 0.93261260E+02</pdfrwt>
<pdfrwt beam="1">  1       -4 0.36384987E-02 0.93261260E+02</pdfrwt>
<totfact> 0.24007190E+04</totfact>
</mgrwt>
</event>
<event>
 5    1  0.1133829E+000  0.9201305E+02  0.7818608E-02  0.1298049E+00
          4   -1    0    0  501    0  0.00000000000E+00  0.00000000000E+00  0.25738374694E+03  0.25738766402E+03  0.14200000000E+01 0.  1.
         -4   -1    0    0    0  501 -0.00000000000E+00 -0.00000000000E+00 -0.81582103408E+01  0.82808692759E+01  0.14200000000E+01 0. -1.
         23    2    1    2    0    0  0.00000000000E+00  0.00000000000E+00  0.24922553660E+03  0.26566853329E+03  0.92013050648E+02 0.  0.
        -11    1    3    3    0    0  0.15372024447E+01  0.37027853721E+02  0.45901599794E+02  0.58994760839E+02  0.51100000000E-03 0.  1.
         11    1    3    3    0    0 -0.15372024447E+01 -0.37027853721E+02  0.20332393680E+03  0.20667377245E+03  0.51100000000E-03 0. -1.
<mgrwt>
<rscale>  0 0.92013051E+02</rscale>
<asrwt>0</asrwt>
<pdfrwt beam="1">  1        4 0.39607242E-01 0.92013051E+02</pdfrwt>
<pdfrwt beam="2">  1       -4 0.12648457E-02 0.92013051E+02</pdfrwt>
<totfact> 0.18466269E+04</totfact>
</mgrwt>
</event>
<event>
 5    1  0.1133829E+000  0.9211076E+02  0.7818608E-02  0.1297819E+00
          4   -1    0    0  501    0  0.00000000000E+00  0.00000000000E+00  0.19044823312E+02  0.19097688210E+02  0.14200000000E+01 0.  1.
         -4   -1    0    0    0  501 -0.00000000000E+00 -0.00000000000E+00 -0.11116223307E+03  0.11117130232E+03  0.14200000000E+01 0. -1.
         23    2    1    2    0    0  0.00000000000E+00  0.00000000000E+00 -0.92117409755E+02  0.13026899053E+03  0.92110763295E+02 0.  0.
        -11    1    3    3    0    0  0.13181015557E+02 -0.31724140356E+02 -0.89440863053E+02  0.95811420177E+02  0.51100000000E-03 0. -1.
         11    1    3    3    0    0 -0.13181015557E+02  0.31724140356E+02 -0.26765467027E+01  0.34457570358E+02  0.51100000000E-03 0.  1.
<mgrwt>
<rscale>  0 0.92110763E+02</rscale>
<asrwt>0</asrwt>
<pdfrwt beam="1">  1        4 0.29347371E-02 0.92110763E+02</pdfrwt>
<pdfrwt beam="2">  1       -4 0.17106646E-01 0.92110763E+02</pdfrwt>
<totfact> 0.24031642E+04</totfact>
</mgrwt>
</event>
<event>
 5    1  0.1133829E+000  0.9623169E+02  0.7818608E-02  0.1288426E+00
         -4   -1    0    0    0  501 -0.00000000000E+00  0.00000000000E+00  0.42735284710E+02  0.42758869948E+02  0.14200000000E+01 0.  1.
          4   -1    0    0  501    0  0.00000000000E+00 -0.00000000000E+00 -0.54125996948E+02  0.54144620652E+02  0.14200000000E+01 0. -1.
         23    2    1    2    0    0  0.00000000000E+00  0.00000000000E+00 -0.11390712238E+02  0.96903490600E+02  0.96231690026E+02 0.  0.
        -11    1    3    3    0    0  0.27109363032E+02  0.33082457122E+02 -0.27889365379E+02  0.51060583963E+02  0.51100000000E-03 0. -1.
         11    1    3    3    0    0 -0.27109363032E+02 -0.33082457122E+02  0.16498653141E+02  0.45842906637E+02  0.51100000000E-03 0.  1.
<mgrwt>
<rscale>  0 0.96231690E+02</rscale>
<asrwt>0</asrwt>
<pdfrwt beam="2">  1        4 0.83303233E-02 0.96231690E+02</pdfrwt>
<pdfrwt beam="1">  1       -4 0.65779060E-02 0.96231690E+02</pdfrwt>
<totfact> 0.23005844E+04</totfact>
</mgrwt>
</event>
<event>
 5    1  0.1133829E+000  0.9555743E+02  0.7818608E-02  0.1289926E+00
         -4   -1    0    0    0  501 -0.00000000000E+00  0.00000000000E+00  0.65806862698E+02  0.65822181505E+02  0.14200000000E+01 0.  1.
          4   -1    0    0  501    0  0.00000000000E+00 -0.00000000000E+00 -0.34655579543E+02  0.34684659339E+02  0.14200000000E+01 0. -1.
         23    2    1    2    0    0  0.00000000000E+00  0.00000000000E+00  0.31151283154E+02  0.10050684084E+03  0.95557430974E+02 0.  0.
        -11    1    3    3    0    0  0.13768898278E+02 -0.43672006081E+02  0.12318790730E+01  0.45807687142E+02  0.51100000000E-03 0. -1.
         11    1    3    3    0    0 -0.13768898278E+02  0.43672006081E+02  0.29919404081E+02  0.54699153703E+02  0.51100000000E-03 0.  1.
<mgrwt>
<rscale>  0 0.95557431E+02</rscale>
<asrwt>0</asrwt>
<pdfrwt beam="2">  1        4 0.53350429E-02 0.95557431E+02</pdfrwt>
<pdfrwt beam="1">  1       -4 0.10127548E-01 0.95557431E+02</pdfrwt>
<totfact> 0.23256316E+04</totfact>
</mgrwt>
</event>
<event>
 5    1  0.1133829E+000  0.8949433E+02  0.7818608E-02  0.1304081E+00
          4   -1    0    0  501    0  0.00000000000E+00  0.00000000000E+00  0.13565992157E+03  0.13566735318E+03  0.14200000000E+01 0. -1.
         -4   -1    0    0    0  501 -0.00000000000E+00 -0.00000000000E+00 -0.14717759301E+02  0.14786102896E+02  0.14200000000E+01 0.  1.
         23    2    1    2    0    0  0.00000000000E+00  0.00000000000E+00  0.12094216226E+03  0.15045345608E+03  0.89494334078E+02 0.  0.
        -11    1    3    3    0    0  0.35142574772E+02  0.27699729007E+02  0.60163797567E+02  0.74979717835E+02  0.51100000000E-03 0. -1.
         11    1    3    3    0    0 -0.35142574772E+02 -0.27699729007E+02  0.60778364697E+02  0.75473738242E+02  0.51100000000E-03 0.  1.
<mgrwt>
<rscale>  0 0.89494334E+02</rscale>
<asrwt>0</asrwt>
<pdfrwt beam="1">  1        4 0.20876586E-01 0.89494334E+02</pdfrwt>
<pdfrwt beam="2">  1       -4 0.22700995E-02 0.89494334E+02</pdfrwt>
<totfact> 0.24862177E+04</totfact>
</mgrwt>
</event>
<event>
 5    1  0.1133829E+000  0.9000390E+02  0.7818608E-02  0.1302842E+00
         -4   -1    0    0    0  501 -0.00000000000E+00  0.00000000000E+00  0.47339378222E+02  0.47360670714E+02  0.14200000000E+01 0.  1.
          4   -1    0    0  501    0  0.00000000000E+00 -0.00000000000E+00 -0.42737229947E+02  0.42760814112E+02  0.14200000000E+01 0. -1.
         23    2    1    2    0    0  0.00000000000E+00  0.00000000000E+00  0.46021482752E+01  0.90121484826E+02  0.90003901352E+02 0.  0.
        -11    1    3    3    0    0  0.34355523511E+02 -0.47286695140E+01 -0.26415885368E+02  0.43594280715E+02  0.51100000000E-03 0. -1.
         11    1    3    3    0    0 -0.34355523511E+02  0.47286695140E+01  0.31018033643E+02  0.46527204111E+02  0.51100000000E-03 0.  1.
<mgrwt>
<rscale>  0 0.90003901E+02</rscale>
<asrwt>0</asrwt>
<pdfrwt beam="2">  1        4 0.65784105E-02 0.90003901E+02</pdfrwt>
<pdfrwt beam="1">  1       -4 0.72864333E-02 0.90003901E+02</pdfrwt>
<totfact> 0.28051177E+04</totfact>
</mgrwt>
</event>
<event>
 5    1  0.1133829E+000  0.9196731E+02  0.7818608E-02  0.1298156E+00
         -4   -1    0    0    0  501 -0.00000000000E+00  0.00000000000E+00  0.38128217469E+03  0.38128481891E+03  0.14200000000E+01 0.  1.
          4   -1    0    0  501    0  0.00000000000E+00 -0.00000000000E+00 -0.54521460120E+01  0.56340301859E+01  0.14200000000E+01 0. -1.
         23    2    1    2    0    0  0.00000000000E+00  0.00000000000E+00  0.37583002868E+03  0.38691884910E+03  0.91967305792E+02 0.  0.
        -11    1    3    3    0    0  0.37765978552E+02 -0.21549711345E+02  0.25085874731E+03  0.25459923468E+03  0.51100000000E-03 0.  1.
         11    1    3    3    0    0 -0.37765978552E+02  0.21549711345E+02  0.12497128136E+03  0.13231961442E+03  0.51100000000E-03 0. -1.
<mgrwt>
<rscale>  0 0.91967306E+02</rscale>
<asrwt>0</asrwt>
<pdfrwt beam="2">  1        4 0.85298602E-03 0.91967306E+02</pdfrwt>
<pdfrwt beam="1">  1       -4 0.58673002E-01 0.91967306E+02</pdfrwt>
<totfact> 0.15110917E+04</totfact>
</mgrwt>
</event>
<event>
 5    1  0.1133829E+000  0.9138314E+02  0.7818608E-02  0.1299536E+00
          4   -1    0    0  501    0  0.00000000000E+00  0.00000000000E+00  0.37901251043E+02  0.37927842420E+02  0.14200000000E+01 0. -1.
         -4   -1    0    0    0  501 -0.00000000000E+00 -0.00000000000E+00 -0.55028058097E+02  0.55046376611E+02  0.14200000000E+01 0.  1.
         23    2    1    2    0    0  0.00000000000E+00  0.00000000000E+00 -0.17126807054E+02  0.92974219031E+02  0.91383137856E+02 0.  0.
        -11    1    3    3    0    0 -0.15699728795E+02 -0.40018250486E+02 -0.24317764436E+02  0.49389224772E+02  0.51100000000E-03 0.  1.
         11    1    3    3    0    0  0.15699728795E+02  0.40018250486E+02  0.71909573820E+01  0.43584994258E+02  0.51100000000E-03 0. -1.
<mgrwt>
<rscale>  0 0.91383138E+02</rscale>
<asrwt>0</asrwt>
<pdfrwt beam="1">  1        4 0.58344163E-02 0.91383138E+02</pdfrwt>
<pdfrwt beam="2">  1       -4 0.84693097E-02 0.91383138E+02</pdfrwt>
<totfact> 0.26736284E+04</totfact>
</mgrwt>
</event>
<event>
 5    1  0.1133829E+000  0.8882478E+02  0.7818608E-02  0.1305723E+00
          4   -1    0    0  501    0  0.00000000000E+00  0.00000000000E+00  0.50796229746E+02  0.50816073800E+02  0.14200000000E+01 0. -1.
         -4   -1    0    0    0  501 -0.00000000000E+00 -0.00000000000E+00 -0.38790419984E+02  0.38816402236E+02  0.14200000000E+01 0.  1.
         23    2    1    2    0    0  0.00000000000E+00  0.00000000000E+00  0.12005809762E+02  0.89632476036E+02  0.88824778594E+02 0.  0.
        -11    1    3    3    0    0  0.32506051382E+02 -0.30115227843E+02  0.90116271545E+01  0.45219240912E+02  0.51100000000E-03 0. -1.
         11    1    3    3    0    0 -0.32506051382E+02  0.30115227843E+02  0.29941826076E+01  0.44413235124E+02  0.51100000000E-03 0.  1.
<mgrwt>
<rscale>  0 0.88824779E+02</rscale>
<asrwt>0</asrwt>
<pdfrwt beam="1">  1        4 0.78183297E-02 0.88824779E+02</pdfrwt>
<pdfrwt beam="2">  1       -4 0.59712820E-02 0.88824779E+02</pdfrwt>
<totfact> 0.29103300E+04</totfact>
</mgrwt>
</event>
<event>
 5    1  0.1133829E+000  0.9063069E+02  0.7818608E-02  0.1301332E+00
          4   -1    0    0  501    0  0.00000000000E+00  0.00000000000E+00  0.30455455302E+02  0.30488541415E+02  0.14200000000E+01 0. -1.
         -4   -1    0    0    0  501 -0.00000000000E+00 -0.00000000000E+00 -0.67348518253E+02  0.67363486481E+02  0.14200000000E+01 0.  1.
         23    2    1    2    0    0  0.00000000000E+00  0.00000000000E+00 -0.36893062951E+02  0.97852027896E+02  0.90630686136E+02 0.  0.
        -11    1    3    3    0    0 -0.14022260246E+02  0.34899650759E+02  0.88433167253E+01  0.38636946780E+02  0.51100000000E-03 0. -1.
         11    1    3    3    0    0  0.14022260246E+02 -0.34899650759E+02 -0.45736379676E+02  0.59215081117E+02  0.51100000000E-03 0.  1.
<mgrwt>
<rscale>  0 0.90630686E+02</rscale>
<asrwt>0</asrwt>
<pdfrwt beam="1">  1        4 0.46891512E-02 0.90630686E+02</pdfrwt>
<pdfrwt beam="2">  1       -4 0.10365007E-01 0.90630686E+02</pdfrwt>
<totfact> 0.27027964E+04</totfact>
</mgrwt>
</event>
<event>
 5    1  0.1133829E+000  0.1035396E+03  0.7818608E-02  0.1273024E+00
          4   -1    0    0  501    0  0.00000000000E+00  0.00000000000E+00  0.17702147587E+03  0.17702717113E+03  0.14200000000E+01 0.  1.
         -4   -1    0    0    0  501 -0.00000000000E+00 -0.00000000000E+00 -0.15100788611E+02  0.15167406393E+02  0.14200000000E+01 0. -1.
         23    2    1    2    0    0  0.00000000000E+00  0.00000000000E+00  0.16192068726E+03  0.19219457752E+03  0.10353958986E+03 0.  0.
        -11    1    3    3    0    0 -0.33001039811E+02 -0.18978197915E+02  0.15836358652E+02  0.41231430734E+02  0.51100000000E-03 0. -1.
         11    1    3    3    0    0  0.33001039811E+02  0.18978197915E+02  0.14608432860E+03  0.15096314679E+03  0.51100000000E-03 0.  1.
<mgrwt>
<rscale>  0 0.10353959E+03</rscale>
<asrwt>0</asrwt>
<pdfrwt beam="1">  1        4 0.27239636E-01 0.10353959E+03</pdfrwt>
<pdfrwt beam="2">  1       -4 0.23287608E-02 0.10353959E+03</pdfrwt>
<totfact> 0.15396383E+04</totfact>
</mgrwt>
</event>
<event>
 5    1  0.1133829E+000  0.8797289E+02  0.7818608E-02  0.1307836E+00
          4   -1    0    0  501    0  0.00000000000E+00  0.00000000000E+00  0.27267044488E+02  0.27303994490E+02  0.14200000000E+01 0. -1.
         -4   -1    0    0    0  501 -0.00000000000E+00 -0.00000000000E+00 -0.70865604420E+02  0.70879829922E+02  0.14200000000E+01 0.  1.
         23    2    1    2    0    0  0.00000000000E+00  0.00000000000E+00 -0.43598559932E+02  0.98183824413E+02  0.87972887574E+02 0.  0.
        -11    1    3    3    0    0  0.61650470331E+01  0.17822383852E+02  0.22551825450E+02  0.29397789075E+02  0.51100000000E-03 0. -1.
         11    1    3    3    0    0 -0.61650470331E+01 -0.17822383852E+02 -0.66150385382E+02  0.68786035338E+02  0.51100000000E-03 0.  1.
<mgrwt>
<rscale>  0 0.87972888E+02</rscale>
<asrwt>0</asrwt>
<pdfrwt beam="1">  1        4 0.41988665E-02 0.87972888E+02</pdfrwt>
<pdfrwt beam="2">  1       -4 0.10906337E-01 0.87972888E+02</pdfrwt>
<totfact> 0.29265256E+04</totfact>
</mgrwt>
</event>
<event>
 5    1  0.1133829E+000  0.7516250E+02  0.7818608E-02  0.1343369E+00
         -4   -1    0    0    0  501 -0.00000000000E+00  0.00000000000E+00  0.76859523148E+02  0.76872639466E+02  0.14200000000E+01 0.  1.
          4   -1    0    0  501    0  0.00000000000E+00 -0.00000000000E+00 -0.18333593288E+02  0.18388503008E+02  0.14200000000E+01 0. -1.
         23    2    1    2    0    0  0.00000000000E+00  0.00000000000E+00  0.58525929859E+02  0.95261142474E+02  0.75162495964E+02 0.  0.
        -11    1    3    3    0    0  0.34892624907E+02  0.27703337888E+01  0.11923147541E+02  0.36977445420E+02  0.51100000000E-03 0. -1.
         11    1    3    3    0    0 -0.34892624907E+02 -0.27703337888E+01  0.46602782318E+02  0.58283697054E+02  0.51100000000E-03 0.  1.
<mgrwt>
<rscale>  0 0.75162496E+02</rscale>
<asrwt>0</asrwt>
<pdfrwt beam="2">  1        4 0.28257857E-02 0.75162496E+02</pdfrwt>
<pdfrwt beam="1">  1       -4 0.11829775E-01 0.75162496E+02</pdfrwt>
<totfact> 0.44839030E+04</totfact>
</mgrwt>
</event>
<event>
 5    1  0.1133829E+000  0.1083560E+03  0.7818608E-02  0.1263645E+00
         -4   -1    0    0    0  501 -0.00000000000E+00  0.00000000000E+00  0.84933441322E+02  0.84945310964E+02  0.14200000000E+01 0.  1.
          4   -1    0    0  501    0  0.00000000000E+00 -0.00000000000E+00 -0.34530611538E+02  0.34559796486E+02  0.14200000000E+01 0. -1.
         23    2    1    2    0    0  0.00000000000E+00  0.00000000000E+00  0.50402829784E+02  0.11950510745E+03  0.10835601255E+03 0.  0.
        -11    1    3    3    0    0 -0.43939856064E+02  0.89075966636E+01  0.58748230032E+02  0.73901358319E+02  0.51100000000E-03 0.  1.
         11    1    3    3    0    0  0.43939856064E+02 -0.89075966636E+01 -0.83454002478E+01  0.45603749131E+02  0.51100000000E-03 0. -1.
<mgrwt>
<rscale>  0 0.10835601E+03</rscale>
<asrwt>0</asrwt>
<pdfrwt beam="2">  1        4 0.53155599E-02 0.10835601E+03</pdfrwt>
<pdfrwt beam="1">  1       -4 0.13069841E-01 0.10835601E+03</pdfrwt>
<totfact> 0.15776191E+04</totfact>
</mgrwt>
</event>
<event>
 5    1  0.1133829E+000  0.9086759E+02  0.7818608E-02  0.1300764E+00
          4   -1    0    0  501    0  0.00000000000E+00  0.00000000000E+00  0.12811775567E+02  0.12890228593E+02  0.14200000000E+01 0. -1.
         -4   -1    0    0    0  501 -0.00000000000E+00 -0.00000000000E+00 -0.16054631935E+03  0.16055259903E+03  0.14200000000E+01 0.  1.
         23    2    1    2    0    0  0.00000000000E+00  0.00000000000E+00 -0.14773454378E+03  0.17344282763E+03  0.90867590639E+02 0.  0.
        -11    1    3    3    0    0  0.11207359156E+02  0.35733869164E+02 -0.12296743903E+03  0.12854378774E+03  0.51100000000E-03 0. -1.
         11    1    3    3    0    0 -0.11207359156E+02 -0.35733869164E+02 -0.24767104754E+02  0.44899039888E+02  0.51100000000E-03 0.  1.
<mgrwt>
<rscale>  0 0.90867591E+02</rscale>
<asrwt>0</asrwt>
<pdfrwt beam="1">  1        4 0.19775604E-02 0.90867591E+02</pdfrwt>
<pdfrwt beam="2">  1       -4 0.24705950E-01 0.90867591E+02</pdfrwt>
<totfact> 0.22755080E+04</totfact>
</mgrwt>
</event>
<event>
 5    1  0.1133829E+000  0.8531196E+02  0.7818608E-02  0.1314619E+00
         -4   -1    0    0    0  501 -0.00000000000E+00  0.00000000000E+00  0.28613844157E+03  0.28614196502E+03  0.14200000000E+01 0.  1.
          4   -1    0    0  501    0  0.00000000000E+00 -0.00000000000E+00 -0.62760416263E+01  0.64346793623E+01  0.14200000000E+01 0. -1.
         23    2    1    2    0    0  0.00000000000E+00  0.00000000000E+00  0.27986239994E+03  0.29257664438E+03  0.85311956573E+02 0.  0.
        -11    1    3    3    0    0  0.52409585090E+01  0.42104428769E+02  0.15499050178E+03  0.16069320524E+03  0.51100000000E-03 0. -1.
         11    1    3    3    0    0 -0.52409585090E+01 -0.42104428769E+02  0.12487189816E+03  0.13188343914E+03  0.51100000000E-03 0.  1.
<mgrwt>
<rscale>  0 0.85311957E+02</rscale>
<asrwt>0</asrwt>
<pdfrwt beam="2">  1        4 0.97801866E-03 0.85311957E+02</pdfrwt>
<pdfrwt beam="1">  1       -4 0.44033779E-01 0.85311957E+02</pdfrwt>
<totfact> 0.21517129E+04</totfact>
</mgrwt>
</event>
<event>
 5    1  0.1133829E+000  0.8016914E+02  0.7818608E-02  0.1328572E+00
          4   -1    0    0  501    0  0.00000000000E+00  0.00000000000E+00  0.14539000089E+03  0.14539693518E+03  0.14200000000E+01 0. -1.
         -4   -1    0    0    0  501 -0.00000000000E+00 -0.00000000000E+00 -0.10998625539E+02  0.11089912703E+02  0.14200000000E+01 0.  1.
         23    2    1    2    0    0  0.00000000000E+00  0.00000000000E+00  0.13439137535E+03  0.15648684788E+03  0.80169144880E+02 0.  0.
        -11    1    3    3    0    0  0.17454786974E+02  0.36078962249E+02  0.68448355660E+02  0.79319218971E+02  0.51100000000E-03 0. -1.
         11    1    3    3    0    0 -0.17454786974E+02 -0.36078962249E+02  0.65943019692E+02  0.77167628910E+02  0.51100000000E-03 0.  1.
<mgrwt>
<rscale>  0 0.80169145E+02</rscale>
<asrwt>0</asrwt>
<pdfrwt beam="1">  1        4 0.22375248E-01 0.80169145E+02</pdfrwt>
<pdfrwt beam="2">  1       -4 0.16996517E-02 0.80169145E+02</pdfrwt>
<totfact> 0.32888617E+04</totfact>
</mgrwt>
</event>
<event>
 5    1  0.1133829E+000  0.9515016E+02  0.7818608E-02  0.1290838E+00
          4   -1    0    0  501    0  0.00000000000E+00  0.00000000000E+00  0.12404392312E+03  0.12405205062E+03  0.14200000000E+01 0.  1.
         -4   -1    0    0    0  501 -0.00000000000E+00 -0.00000000000E+00 -0.18210302862E+02  0.18265583219E+02  0.14200000000E+01 0. -1.
         23    2    1    2    0    0  0.00000000000E+00  0.00000000000E+00  0.10583362026E+03  0.14231763384E+03  0.95150164082E+02 0.  0.
        -11    1    3    3    0    0  0.47868184907E+01  0.31489393147E+02  0.58682571506E-01  0.31851200228E+02  0.51100000000E-03 0. -1.
         11    1    3    3    0    0 -0.47868184907E+01 -0.31489393147E+02  0.10577493769E+03  0.11046643361E+03  0.51100000000E-03 0.  1.
<mgrwt>
<rscale>  0 0.95150164E+02</rscale>
<asrwt>0</asrwt>
<pdfrwt beam="1">  1        4 0.19088558E-01 0.95150164E+02</pdfrwt>
<pdfrwt beam="2">  1       -4 0.28064625E-02 0.95150164E+02</pdfrwt>
<totfact> 0.21441774E+04</totfact>
</mgrwt>
</event>
<event>
 5    1  0.1133829E+000  0.9049853E+02  0.7818608E-02  0.1301649E+00
         -4   -1    0    0    0  501 -0.00000000000E+00  0.00000000000E+00  0.27366896269E+02  0.27403711635E+02  0.14200000000E+01 0. -1.
          4   -1    0    0  501    0  0.00000000000E+00 -0.00000000000E+00 -0.74722660064E+02  0.74736151406E+02  0.14200000000E+01 0.  1.
         23    2    1    2    0    0  0.00000000000E+00  0.00000000000E+00 -0.47355763795E+02  0.10213986304E+03  0.90498526272E+02 0.  0.
        -11    1    3    3    0    0 -0.37300919780E+02  0.22414709720E+02 -0.96847120083E+01  0.44582187869E+02  0.51100000000E-03 0. -1.
         11    1    3    3    0    0  0.37300919780E+02 -0.22414709720E+02 -0.37671051787E+02  0.57557675172E+02  0.51100000000E-03 0.  1.
<mgrwt>
<rscale>  0 0.90498526E+02</rscale>
<asrwt>0</asrwt>
<pdfrwt beam="2">  1        4 0.11499663E-01 0.90498526E+02</pdfrwt>
<pdfrwt beam="1">  1       -4 0.42141615E-02 0.90498526E+02</pdfrwt>
<totfact> 0.26863640E+04</totfact>
</mgrwt>
</event>
<event>
 5    1  0.1133829E+000  0.9730801E+02  0.7818608E-02  0.1286061E+00
         -4   -1    0    0    0  501 -0.00000000000E+00  0.00000000000E+00  0.23530517583E+02  0.23573325131E+02  0.14200000000E+01 0.  1.
          4   -1    0    0  501    0  0.00000000000E+00 -0.00000000000E+00 -0.10046253670E+03  0.10047257178E+03  0.14200000000E+01 0. -1.
         23    2    1    2    0    0  0.00000000000E+00  0.00000000000E+00 -0.76932019118E+02  0.12404589691E+03  0.97308010848E+02 0.  0.
        -11    1    3    3    0    0 -0.23236705036E+02 -0.37780976262E+02 -0.12974776774E+02  0.46213541964E+02  0.51100000000E-03 0.  1.
         11    1    3    3    0    0  0.23236705036E+02  0.37780976262E+02 -0.63957242344E+02  0.77832354948E+02  0.51100000000E-03 0. -1.
<mgrwt>
<rscale>  0 0.97308011E+02</rscale>
<asrwt>0</asrwt>
<pdfrwt beam="2">  1        4 0.15459839E-01 0.97308011E+02</pdfrwt>
<pdfrwt beam="1">  1       -4 0.36241445E-02 0.97308011E+02</pdfrwt>
<totfact> 0.20986896E+04</totfact>
</mgrwt>
</event>
<event>
 5    1  0.1133829E+000  0.8733374E+02  0.7818608E-02  0.1309440E+00
         -4   -1    0    0    0  501 -0.00000000000E+00  0.00000000000E+00  0.15925038428E+02  0.15988222194E+02  0.14200000000E+01 0.  1.
          4   -1    0    0  501    0  0.00000000000E+00 -0.00000000000E+00 -0.11943122047E+03  0.11943966185E+03  0.14200000000E+01 0. -1.
         23    2    1    2    0    0  0.00000000000E+00  0.00000000000E+00 -0.10350618204E+03  0.13542788404E+03  0.87333739503E+02 0.  0.
        -11    1    3    3    0    0  0.13595334459E+02  0.15162705997E+02 -0.11165193146E+03  0.11349402879E+03  0.51100000000E-03 0. -1.
         11    1    3    3    0    0 -0.13595334459E+02 -0.15162705997E+02  0.81457494215E+01  0.21933855249E+02  0.51100000000E-03 0.  1.
<mgrwt>
<rscale>  0 0.87333740E+02</rscale>
<asrwt>0</asrwt>
<pdfrwt beam="2">  1        4 0.18379543E-01 0.87333740E+02</pdfrwt>
<pdfrwt beam="1">  1       -4 0.24555156E-02 0.87333740E+02</pdfrwt>
<totfact> 0.27417809E+04</totfact>
</mgrwt>
</event>
<event>
 5    1  0.1133829E+000  0.9231256E+02  0.7818608E-02  0.1297346E+00
          4   -1    0    0  501    0  0.00000000000E+00  0.00000000000E+00  0.43464061691E+03  0.43464293652E+03  0.14200000000E+01 0. -1.
         -4   -1    0    0    0  501 -0.00000000000E+00 -0.00000000000E+00 -0.47962980526E+01  0.50020870653E+01  0.14200000000E+01 0.  1.
         23    2    1    2    0    0  0.00000000000E+00  0.00000000000E+00  0.42984431886E+03  0.43964502359E+03  0.92312557707E+02 0.  0.
        -11    1    3    3    0    0 -0.24811275560E+02  0.37926208176E+02  0.17329244331E+03  0.17912081836E+03  0.51100000000E-03 0.  1.
         11    1    3    3    0    0  0.24811275560E+02 -0.37926208176E+02  0.25655187555E+03  0.26052420522E+03  0.51100000000E-03 0. -1.
<mgrwt>
<rscale>  0 0.92312558E+02</rscale>
<asrwt>0</asrwt>
<pdfrwt beam="1">  1        4 0.66883812E-01 0.92312558E+02</pdfrwt>
<pdfrwt beam="2">  1       -4 0.75390018E-03 0.92312558E+02</pdfrwt>
<totfact> 0.13806518E+04</totfact>
</mgrwt>
</event>
<event>
 5    1  0.1133829E+000  0.9285527E+02  0.7818608E-02  0.1296081E+00
          4   -1    0    0  501    0  0.00000000000E+00  0.00000000000E+00  0.23196746192E+02  0.23240168543E+02  0.14200000000E+01 0. -1.
         -4   -1    0    0    0  501 -0.00000000000E+00 -0.00000000000E+00 -0.92787863977E+02  0.92798728986E+02  0.14200000000E+01 0.  1.
         23    2    1    2    0    0  0.00000000000E+00  0.00000000000E+00 -0.69591117784E+02  0.11603889753E+03  0.92855274838E+02 0.  0.
        -11    1    3    3    0    0  0.46296177250E+02 -0.12099357900E+01 -0.38888228329E+02  0.60473914007E+02  0.51100000000E-03 0.  1.
         11    1    3    3    0    0 -0.46296177250E+02  0.12099357900E+01 -0.30702889456E+02  0.55564983522E+02  0.51100000000E-03 0. -1.
<mgrwt>
<rscale>  0 0.92855275E+02</rscale>
<asrwt>0</asrwt>
<pdfrwt beam="1">  1        4 0.35729062E-02 0.92855275E+02</pdfrwt>
<pdfrwt beam="2">  1       -4 0.14279232E-01 0.92855275E+02</pdfrwt>
<totfact> 0.24268721E+04</totfact>
</mgrwt>
</event>
<event>
 5    1  0.1133829E+000  0.9176210E+02  0.7818608E-02  0.1298640E+00
          4   -1    0    0  501    0  0.00000000000E+00  0.00000000000E+00  0.18778107698E+02  0.18831721342E+02  0.14200000000E+01 0.  1.
         -4   -1    0    0    0  501 -0.00000000000E+00 -0.00000000000E+00 -0.11188445312E+03  0.11189346384E+03  0.14200000000E+01 0. -1.
         23    2    1    2    0    0  0.00000000000E+00  0.00000000000E+00 -0.93106345423E+02  0.13072518518E+03  0.91762097202E+02 0.  0.
        -11    1    3    3    0    0  0.25954374506E+02  0.37797827239E+02 -0.48922192390E+02  0.67049878513E+02  0.51100000000E-03 0.  1.
         11    1    3    3    0    0 -0.25954374506E+02 -0.37797827239E+02 -0.44184153033E+02  0.63675306670E+02  0.51100000000E-03 0. -1.
<mgrwt>
<rscale>  0 0.91762097E+02</rscale>
<asrwt>0</asrwt>
<pdfrwt beam="1">  1        4 0.28937570E-02 0.91762097E+02</pdfrwt>
<pdfrwt beam="2">  1       -4 0.17217810E-01 0.91762097E+02</pdfrwt>
<totfact> 0.24255231E+04</totfact>
</mgrwt>
</event>
<event>
 5    1  0.1133829E+000  0.8680709E+02  0.7818608E-02  0.1310773E+00
          4   -1    0    0  501    0  0.00000000000E+00  0.00000000000E+00  0.38776977655E+02  0.38802968908E+02  0.14200000000E+01 0.  1.
         -4   -1    0    0    0  501 -0.00000000000E+00 -0.00000000000E+00 -0.48529463211E+02  0.48550233775E+02  0.14200000000E+01 0. -1.
         23    2    1    2    0    0  0.00000000000E+00  0.00000000000E+00 -0.97524855560E+01  0.87353202683E+02  0.86807090980E+02 0.  0.
        -11    1    3    3    0    0 -0.17407411889E+02 -0.39531729611E+02 -0.91564858543E+01  0.44154466004E+02  0.51100000000E-03 0. -1.
         11    1    3    3    0    0  0.17407411889E+02  0.39531729611E+02 -0.59599970175E+00  0.43198736678E+02  0.51100000000E-03 0.  1.
<mgrwt>
<rscale>  0 0.86807091E+02</rscale>
<asrwt>0</asrwt>
<pdfrwt beam="1">  1        4 0.59692859E-02 0.86807091E+02</pdfrwt>
<pdfrwt beam="2">  1       -4 0.74696683E-02 0.86807091E+02</pdfrwt>
<totfact> 0.31135298E+04</totfact>
</mgrwt>
</event>
<event>
 5    1  0.1133829E+000  0.9379764E+02  0.7818608E-02  0.1293907E+00
         -4   -1    0    0    0  501 -0.00000000000E+00  0.00000000000E+00  0.18845560114E+02  0.18898982406E+02  0.14200000000E+01 0.  1.
          4   -1    0    0  501    0  0.00000000000E+00 -0.00000000000E+00 -0.11648885036E+03  0.11649750494E+03  0.14200000000E+01 0. -1.
         23    2    1    2    0    0  0.00000000000E+00  0.00000000000E+00 -0.97643290243E+02  0.13539648735E+03  0.93797636732E+02 0.  0.
        -11    1    3    3    0    0  0.61765958687E+01 -0.34568259942E+02 -0.93695194110E+02  0.10005950395E+03  0.51100000000E-03 0. -1.
         11    1    3    3    0    0 -0.61765958687E+01  0.34568259942E+02 -0.39480961328E+01  0.35336983393E+02  0.51100000000E-03 0.  1.
<mgrwt>
<rscale>  0 0.93797637E+02</rscale>
<asrwt>0</asrwt>
<pdfrwt beam="2">  1        4 0.17926136E-01 0.93797637E+02</pdfrwt>
<pdfrwt beam="1">  1       -4 0.29040922E-02 0.93797637E+02</pdfrwt>
<totfact> 0.22624776E+04</totfact>
</mgrwt>
</event>
<event>
 5    1  0.1133829E+000  0.9160338E+02  0.7818608E-02  0.1299015E+00
         -4   -1    0    0    0  501 -0.00000000000E+00  0.00000000000E+00  0.60316343939E+02  0.60333056828E+02  0.14200000000E+01 0.  1.
          4   -1    0    0  501    0  0.00000000000E+00 -0.00000000000E+00 -0.34743838001E+02  0.34772843988E+02  0.14200000000E+01 0. -1.
         23    2    1    2    0    0  0.00000000000E+00  0.00000000000E+00  0.25572505939E+02  0.95105900816E+02  0.91603380451E+02 0.  0.
        -11    1    3    3    0    0  0.23958140332E+02 -0.23613220999E+02  0.45058823195E+02  0.56230545454E+02  0.51100000000E-03 0.  1.
         11    1    3    3    0    0 -0.23958140332E+02  0.23613220999E+02 -0.19486317256E+02  0.38875355362E+02  0.51100000000E-03 0. -1.
<mgrwt>
<rscale>  0 0.91603380E+02</rscale>
<asrwt>0</asrwt>
<pdfrwt beam="2">  1        4 0.53487227E-02 0.91603380E+02</pdfrwt>
<pdfrwt beam="1">  1       -4 0.92829543E-02 0.91603380E+02</pdfrwt>
<totfact> 0.26427653E+04</totfact>
</mgrwt>
</event>
<event>
 5    1  0.1133829E+000  0.9063286E+02  0.7818608E-02  0.1301326E+00
          4   -1    0    0  501    0  0.00000000000E+00  0.00000000000E+00  0.21675527276E+03  0.21675992403E+03  0.14200000000E+01 0. -1.
         -4   -1    0    0    0  501 -0.00000000000E+00 -0.00000000000E+00 -0.94161936538E+01  0.95226625965E+01  0.14200000000E+01 0.  1.
         23    2    1    2    0    0  0.00000000000E+00  0.00000000000E+00  0.20733907910E+03  0.22628258663E+03  0.90632859877E+02 0.  0.
        -11    1    3    3    0    0  0.22914347224E+02  0.20810319942E+02  0.21035275483E+02  0.37424851899E+02  0.51100000000E-03 0.  1.
         11    1    3    3    0    0 -0.22914347224E+02 -0.20810319942E+02  0.18630380362E+03  0.18885773473E+03  0.51100000000E-03 0. -1.
<mgrwt>
<rscale>  0 0.90632860E+02</rscale>
<asrwt>0</asrwt>
<pdfrwt beam="1">  1        4 0.33355513E-01 0.90632860E+02</pdfrwt>
<pdfrwt beam="2">  1       -4 0.14571929E-02 0.90632860E+02</pdfrwt>
<totfact> 0.20663487E+04</totfact>
</mgrwt>
</event>
<event>
 5    1  0.1133829E+000  0.9505798E+02  0.7818608E-02  0.1291046E+00
         -4   -1    0    0    0  501 -0.00000000000E+00  0.00000000000E+00  0.58416353669E+01  0.60117471470E+01  0.14200000000E+01 0. -1.
          4   -1    0    0  501    0  0.00000000000E+00 -0.00000000000E+00 -0.38098635896E+03  0.38098900524E+03  0.14200000000E+01 0.  1.
         23    2    1    2    0    0  0.00000000000E+00  0.00000000000E+00 -0.37514472359E+03  0.38700075239E+03  0.95057975511E+02 0.  0.
        -11    1    3    3    0    0  0.28804540848E+02  0.36445903319E+02 -0.22848733677E+03  0.23316189334E+03  0.51100000000E-03 0.  1.
         11    1    3    3    0    0 -0.28804540848E+02 -0.36445903319E+02 -0.14665738683E+03  0.15383885905E+03  0.51100000000E-03 0. -1.
<mgrwt>
<rscale>  0 0.95057976E+02</rscale>
<asrwt>0</asrwt>
<pdfrwt beam="2">  1        4 0.58626556E-01 0.95057976E+02</pdfrwt>
<pdfrwt beam="1">  1       -4 0.91200252E-03 0.95057976E+02</pdfrwt>
<totfact> 0.13837578E+04</totfact>
</mgrwt>
</event>
<event>
 5    1  0.1133829E+000  0.9877077E+02  0.7818608E-02  0.1282902E+00
          4   -1    0    0  501    0  0.00000000000E+00  0.00000000000E+00  0.14415326437E+02  0.14485097041E+02  0.14200000000E+01 0. -1.
         -4   -1    0    0    0  501 -0.00000000000E+00 -0.00000000000E+00 -0.16870787839E+03  0.16871385430E+03  0.14200000000E+01 0.  1.
         23    2    1    2    0    0  0.00000000000E+00  0.00000000000E+00 -0.15429255195E+03  0.18319895134E+03  0.98770765828E+02 0.  0.
        -11    1    3    3    0    0 -0.13677615521E+02  0.23994571842E+02 -0.12108475312E+01  0.27645665053E+02  0.51100000000E-03 0. -1.
         11    1    3    3    0    0  0.13677615521E+02 -0.23994571842E+02 -0.15308170442E+03  0.15555328628E+03  0.51100000000E-03 0.  1.
<mgrwt>
<rscale>  0 0.98770766E+02</rscale>
<asrwt>0</asrwt>
<pdfrwt beam="1">  1        4 0.22235693E-02 0.98770766E+02</pdfrwt>
<pdfrwt beam="2">  1       -4 0.25960884E-01 0.98770766E+02</pdfrwt>
<totfact> 0.17814326E+04</totfact>
</mgrwt>
</event>
<event>
 5    1  0.1133829E+000  0.8740843E+02  0.7818608E-02  0.1309252E+00
         -4   -1    0    0    0  501 -0.00000000000E+00  0.00000000000E+00  0.22294439842E+03  0.22294892058E+03  0.14200000000E+01 0.  1.
          4   -1    0    0  501    0  0.00000000000E+00 -0.00000000000E+00 -0.85039394104E+01  0.86216811294E+01  0.14200000000E+01 0. -1.
         23    2    1    2    0    0  0.00000000000E+00  0.00000000000E+00  0.21444045901E+03  0.23157060171E+03  0.87408427024E+02 0.  0.
        -11    1    3    3    0    0 -0.31832101053E+02  0.70932546375E+01  0.30141652537E+02  0.44408514237E+02  0.51100000000E-03 0. -1.
         11    1    3    3    0    0  0.31832101053E+02 -0.70932546375E+01  0.18429880647E+03  0.18716208747E+03  0.51100000000E-03 0.  1.
<mgrwt>
<rscale>  0 0.87408427E+02</rscale>
<asrwt>0</asrwt>
<pdfrwt beam="2">  1        4 0.13177035E-02 0.87408427E+02</pdfrwt>
<pdfrwt beam="1">  1       -4 0.34308539E-01 0.87408427E+02</pdfrwt>
<totfact> 0.22526616E+04</totfact>
</mgrwt>
</event>
<event>
 5    1  0.1133829E+000  0.9040675E+02  0.7818608E-02  0.1301870E+00
         -4   -1    0    0    0  501 -0.00000000000E+00  0.00000000000E+00  0.13146660446E+02  0.13223126744E+02  0.14200000000E+01 0.  1.
          4   -1    0    0  501    0  0.00000000000E+00 -0.00000000000E+00 -0.15489650916E+03  0.15490301789E+03  0.14200000000E+01 0. -1.
         23    2    1    2    0    0  0.00000000000E+00  0.00000000000E+00 -0.14174984871E+03  0.16812614463E+03  0.90406752499E+02 0.  0.
        -11    1    3    3    0    0  0.38104441606E+02  0.29403180965E+01 -0.11576765310E+03  0.12191285185E+03  0.51100000000E-03 0. -1.
         11    1    3    3    0    0 -0.38104441606E+02 -0.29403180965E+01 -0.25982195611E+02  0.46213292780E+02  0.51100000000E-03 0.  1.
<mgrwt>
<rscale>  0 0.90406752E+02</rscale>
<asrwt>0</asrwt>
<pdfrwt beam="2">  1        4 0.23836614E-01 0.90406752E+02</pdfrwt>
<pdfrwt beam="1">  1       -4 0.20289460E-02 0.90406752E+02</pdfrwt>
<totfact> 0.23319131E+04</totfact>
</mgrwt>
</event>
<event>
 5    1  0.1133829E+000  0.9110618E+02  0.7818608E-02  0.1300195E+00
          4   -1    0    0  501    0  0.00000000000E+00  0.00000000000E+00  0.17830272849E+02  0.17886727758E+02  0.14200000000E+01 0.  1.
         -4   -1    0    0    0  501 -0.00000000000E+00 -0.00000000000E+00 -0.11613505997E+03  0.11614374092E+03  0.14200000000E+01 0. -1.
         23    2    1    2    0    0  0.00000000000E+00  0.00000000000E+00 -0.98304787120E+02  0.13403046867E+03  0.91106176313E+02 0.  0.
        -11    1    3    3    0    0 -0.36622926777E+02 -0.25959075636E+02 -0.60545130031E+02  0.75371248791E+02  0.51100000000E-03 0. -1.
         11    1    3    3    0    0  0.36622926777E+02  0.25959075636E+02 -0.37759657089E+02  0.58659219883E+02  0.51100000000E-03 0.  1.
<mgrwt>
<rscale>  0 0.91106176E+02</rscale>
<asrwt>0</asrwt>
<pdfrwt beam="1">  1        4 0.27481294E-02 0.91106176E+02</pdfrwt>
<pdfrwt beam="2">  1       -4 0.17871942E-01 0.91106176E+02</pdfrwt>
<totfact> 0.24551923E+04</totfact>
</mgrwt>
</event>
<event>
 5    1  0.1133829E+000  0.8981638E+02  0.7818608E-02  0.1303297E+00
          4   -1    0    0  501    0  0.00000000000E+00  0.00000000000E+00  0.78860398255E+02  0.78873181836E+02  0.14200000000E+01 0. -1.
         -4   -1    0    0    0  501 -0.00000000000E+00 -0.00000000000E+00 -0.25539037530E+02  0.25578483887E+02  0.14200000000E+01 0.  1.
         23    2    1    2    0    0  0.00000000000E+00  0.00000000000E+00  0.53321360726E+02  0.10445166572E+03  0.89816384712E+02 0.  0.
        -11    1    3    3    0    0  0.30017792317E+02  0.23122693529E+02  0.54692735647E+02  0.66535871111E+02  0.51100000000E-03 0. -1.
         11    1    3    3    0    0 -0.30017792317E+02 -0.23122693529E+02 -0.13713749210E+01  0.37915794612E+02  0.51100000000E-03 0.  1.
<mgrwt>
<rscale>  0 0.89816385E+02</rscale>
<asrwt>0</asrwt>
<pdfrwt beam="1">  1        4 0.12136387E-01 0.89816385E+02</pdfrwt>
<pdfrwt beam="2">  1       -4 0.39331004E-02 0.89816385E+02</pdfrwt>
<totfact> 0.27270453E+04</totfact>
</mgrwt>
</event>
<event>
 5    1  0.1133829E+000  0.9069931E+02  0.7818608E-02  0.1301167E+00
          4   -1    0    0  501    0  0.00000000000E+00  0.00000000000E+00  0.13478067288E+03  0.13478815297E+03  0.14200000000E+01 0. -1.
         -4   -1    0    0    0  501 -0.00000000000E+00 -0.00000000000E+00 -0.15217841692E+02  0.15283949285E+02  0.14200000000E+01 0.  1.
         23    2    1    2    0    0  0.00000000000E+00  0.00000000000E+00  0.11956283118E+03  0.15007210226E+03  0.90699312425E+02 0.  0.
        -11    1    3    3    0    0  0.42687776355E+01  0.31349560775E+02  0.11353906767E+03  0.11786491128E+03  0.51100000000E-03 0. -1.
         11    1    3    3    0    0 -0.42687776355E+01 -0.31349560775E+02  0.60237635127E+01  0.32207190974E+02  0.51100000000E-03 0.  1.
<mgrwt>
<rscale>  0 0.90699312E+02</rscale>
<asrwt>0</asrwt>
<pdfrwt beam="1">  1        4 0.20741150E-01 0.90699312E+02</pdfrwt>
<pdfrwt beam="2">  1       -4 0.23468669E-02 0.90699312E+02</pdfrwt>
<totfact> 0.24005914E+04</totfact>
</mgrwt>
</event>
<event>
 5    1  0.1133829E+000  0.9461404E+02  0.7818608E-02  0.1292048E+00
          4   -1    0    0  501    0  0.00000000000E+00  0.00000000000E+00  0.21284507759E+02  0.21331822954E+02  0.14200000000E+01 0. -1.
         -4   -1    0    0    0  501 -0.00000000000E+00 -0.00000000000E+00 -0.10497588259E+03  0.10498548626E+03  0.14200000000E+01 0.  1.
         23    2    1    2    0    0  0.00000000000E+00  0.00000000000E+00 -0.83691374827E+02  0.12631730921E+03  0.94614039053E+02 0.  0.
        -11    1    3    3    0    0  0.40891598448E+02 -0.22352391254E+02 -0.30982871063E+02  0.55961509254E+02  0.51100000000E-03 0.  1.
         11    1    3    3    0    0 -0.40891598448E+02  0.22352391254E+02 -0.52708503763E+02  0.70355799957E+02  0.51100000000E-03 0. -1.
<mgrwt>
<rscale>  0 0.94614039E+02</rscale>
<asrwt>0</asrwt>
<pdfrwt beam="1">  1        4 0.32789181E-02 0.94614039E+02</pdfrwt>
<pdfrwt beam="2">  1       -4 0.16154514E-01 0.94614039E+02</pdfrwt>
<totfact> 0.22540822E+04</totfact>
</mgrwt>
</event>
<event>
 5    1  0.1133829E+000  0.9174314E+02  0.7818608E-02  0.1298685E+00
          4   -1    0    0  501    0  0.00000000000E+00  0.00000000000E+00  0.13091797274E+02  0.13168582150E+02  0.14200000000E+01 0. -1.
         -4   -1    0    0    0  501 -0.00000000000E+00 -0.00000000000E+00 -0.16017674761E+03  0.16018304178E+03  0.14200000000E+01 0.  1.
         23    2    1    2    0    0  0.00000000000E+00  0.00000000000E+00 -0.14708495034E+03  0.17335162393E+03  0.91743135465E+02 0.  0.
        -11    1    3    3    0    0 -0.16168424900E+02  0.36400824792E+02 -0.11653765035E+03  0.12315625018E+03  0.51100000000E-03 0.  1.
         11    1    3    3    0    0  0.16168424900E+02 -0.36400824792E+02 -0.30547299983E+02  0.50195373749E+02  0.51100000000E-03 0. -1.
<mgrwt>
<rscale>  0 0.91743135E+02</rscale>
<asrwt>0</asrwt>
<pdfrwt beam="1">  1        4 0.20205135E-02 0.91743135E+02</pdfrwt>
<pdfrwt beam="2">  1       -4 0.24648966E-01 0.91743135E+02</pdfrwt>
<totfact> 0.22180297E+04</totfact>
</mgrwt>
</event>
<event>
 5    1  0.1133829E+000  0.8837672E+02  0.7818608E-02  0.1306831E+00
          4   -1    0    0  501    0  0.00000000000E+00  0.00000000000E+00  0.96653110243E+01  0.97690653185E+01  0.14200000000E+01 0. -1.
         -4   -1    0    0    0  501 -0.00000000000E+00 -0.00000000000E+00 -0.20083775916E+03  0.20084277907E+03  0.14200000000E+01 0.  1.
         23    2    1    2    0    0  0.00000000000E+00  0.00000000000E+00 -0.19117244814E+03  0.21061184439E+03  0.88376716789E+02 0.  0.
        -11    1    3    3    0    0  0.29770128866E+02 -0.17917484016E+01 -0.17882796910E+02  0.34774492960E+02  0.51100000000E-03 0. -1.
         11    1    3    3    0    0 -0.29770128866E+02  0.17917484016E+01 -0.17328965123E+03  0.17583735143E+03  0.51100000000E-03 0.  1.
<mgrwt>
<rscale>  0 0.88376717E+02</rscale>
<asrwt>0</asrwt>
<pdfrwt beam="1">  1        4 0.14953383E-02 0.88376717E+02</pdfrwt>
<pdfrwt beam="2">  1       -4 0.30906481E-01 0.88376717E+02</pdfrwt>
<totfact> 0.22766625E+04</totfact>
</mgrwt>
</event>
<event>
 5    1  0.1133829E+000  0.9212047E+02  0.7818608E-02  0.1297796E+00
         -4   -1    0    0    0  501 -0.00000000000E+00  0.00000000000E+00  0.74159352222E+01  0.75506619061E+01  0.14200000000E+01 0.  1.
          4   -1    0    0  501    0  0.00000000000E+00 -0.00000000000E+00 -0.28336752110E+03  0.28337107900E+03  0.14200000000E+01 0. -1.
         23    2    1    2    0    0  0.00000000000E+00  0.00000000000E+00 -0.27595158588E+03  0.29092174091E+03  0.92120473208E+02 0.  0.
        -11    1    3    3    0    0 -0.37129378243E+01  0.45723521870E+02 -0.12490928088E+03  0.13306673067E+03  0.51100000000E-03 0.  1.
         11    1    3    3    0    0  0.37129378243E+01 -0.45723521870E+02 -0.15104230500E+03  0.15785501024E+03  0.51100000000E-03 0. -1.
<mgrwt>
<rscale>  0 0.92120473E+02</rscale>
<asrwt>0</asrwt>
<pdfrwt beam="2">  1        4 0.43605632E-01 0.92120473E+02</pdfrwt>
<pdfrwt beam="1">  1       -4 0.11515506E-02 0.92120473E+02</pdfrwt>
<totfact> 0.17610663E+04</totfact>
</mgrwt>
</event>
<event>
 5    1  0.1133829E+000  0.8879299E+02  0.7818608E-02  0.1305801E+00
          4   -1    0    0  501    0  0.00000000000E+00  0.00000000000E+00  0.17242229625E+02  0.17300603528E+02  0.14200000000E+01 0. -1.
         -4   -1    0    0    0  501 -0.00000000000E+00 -0.00000000000E+00 -0.11405920894E+03  0.11406804787E+03  0.14200000000E+01 0.  1.
         23    2    1    2    0    0  0.00000000000E+00  0.00000000000E+00 -0.96816979319E+02  0.13136865140E+03  0.88792990072E+02 0.  0.
        -11    1    3    3    0    0 -0.19421959263E+02 -0.73546876116E+00 -0.10746410590E+03  0.10920754311E+03  0.51100000000E-03 0.  1.
         11    1    3    3    0    0  0.19421959263E+02  0.73546876116E+00  0.10647126578E+02  0.22161108288E+02  0.51100000000E-03 0. -1.
<mgrwt>
<rscale>  0 0.88792990E+02</rscale>
<asrwt>0</asrwt>
<pdfrwt beam="1">  1        4 0.26578210E-02 0.88792990E+02</pdfrwt>
<pdfrwt beam="2">  1       -4 0.17552740E-01 0.88792990E+02</pdfrwt>
<totfact> 0.26462138E+04</totfact>
</mgrwt>
</event>
<event>
 5    1  0.1133829E+000  0.9105001E+02  0.7818608E-02  0.1300329E+00
         -4   -1    0    0    0  501 -0.00000000000E+00  0.00000000000E+00  0.24791298187E+03  0.24791704859E+03  0.14200000000E+01 0. -1.
          4   -1    0    0  501    0  0.00000000000E+00 -0.00000000000E+00 -0.82954278562E+01  0.84160871739E+01  0.14200000000E+01 0.  1.
         23    2    1    2    0    0  0.00000000000E+00  0.00000000000E+00  0.23961755401E+03  0.25633313576E+03  0.91050009868E+02 0.  0.
        -11    1    3    3    0    0  0.21706459734E+02 -0.33917933304E+02  0.17959196460E+03  0.18405127097E+03  0.51100000000E-03 0.  1.
         11    1    3    3    0    0 -0.21706459734E+02  0.33917933304E+02  0.60025589410E+02  0.72281864794E+02  0.51100000000E-03 0. -1.
<mgrwt>
<rscale>  0 0.91050010E+02</rscale>
<asrwt>0</asrwt>
<pdfrwt beam="2">  1        4 0.12858141E-02 0.91050010E+02</pdfrwt>
<pdfrwt beam="1">  1       -4 0.38150051E-01 0.91050010E+02</pdfrwt>
<totfact> 0.19313186E+04</totfact>
</mgrwt>
</event>
<event>
 5    1  0.1133829E+000  0.9653285E+02  0.7818608E-02  0.1287761E+00
         -4   -1    0    0    0  501 -0.00000000000E+00  0.00000000000E+00  0.54003332835E+02  0.54021998828E+02  0.14200000000E+01 0.  1.
          4   -1    0    0  501    0  0.00000000000E+00 -0.00000000000E+00 -0.43101145001E+02  0.43124530147E+02  0.14200000000E+01 0. -1.
         23    2    1    2    0    0  0.00000000000E+00  0.00000000000E+00  0.10902187834E+02  0.97146528975E+02  0.96532846183E+02 0.  0.
        -11    1    3    3    0    0 -0.15951767399E+02 -0.45352355360E+02  0.97623191806E+01  0.49057088131E+02  0.51100000000E-03 0.  1.
         11    1    3    3    0    0  0.15951767399E+02  0.45352355360E+02  0.11398686536E+01  0.48089440844E+02  0.51100000000E-03 0. -1.
<mgrwt>
<rscale>  0 0.96532846E+02</rscale>
<asrwt>0</asrwt>
<pdfrwt beam="2">  1        4 0.66341801E-02 0.96532846E+02</pdfrwt>
<pdfrwt beam="1">  1       -4 0.83114398E-02 0.96532846E+02</pdfrwt>
<totfact> 0.22797058E+04</totfact>
</mgrwt>
</event>
<event>
 5    1  0.1133829E+000  0.9141562E+02  0.7818608E-02  0.1299459E+00
          4   -1    0    0  501    0  0.00000000000E+00  0.00000000000E+00  0.95944649732E+02  0.95955157298E+02  0.14200000000E+01 0. -1.
         -4   -1    0    0    0  501 -0.00000000000E+00 -0.00000000000E+00 -0.21740229216E+02  0.21786554715E+02  0.14200000000E+01 0.  1.
         23    2    1    2    0    0  0.00000000000E+00  0.00000000000E+00  0.74204420516E+02  0.11774171201E+03  0.91415615316E+02 0.  0.
        -11    1    3    3    0    0  0.23817906639E+02 -0.23396356609E+02  0.77309580803E+02  0.84210768097E+02  0.51100000000E-03 0. -1.
         11    1    3    3    0    0 -0.23817906639E+02  0.23396356609E+02 -0.31051602871E+01  0.33530943916E+02  0.51100000000E-03 0.  1.
<mgrwt>
<rscale>  0 0.91415615E+02</rscale>
<asrwt>0</asrwt>
<pdfrwt beam="1">  1        4 0.14765087E-01 0.91415615E+02</pdfrwt>
<pdfrwt beam="2">  1       -4 0.33490224E-02 0.91415615E+02</pdfrwt>
<totfact> 0.25222102E+04</totfact>
</mgrwt>
</event>
<event>
 5    1  0.1133829E+000  0.9100533E+02  0.7818608E-02  0.1300435E+00
         -4   -1    0    0    0  501 -0.00000000000E+00  0.00000000000E+00  0.36276103604E+02  0.36303885367E+02  0.14200000000E+01 0.  1.
          4   -1    0    0  501    0  0.00000000000E+00 -0.00000000000E+00 -0.57017468597E+02  0.57035148157E+02  0.14200000000E+01 0. -1.
         23    2    1    2    0    0  0.00000000000E+00  0.00000000000E+00 -0.20741364993E+02  0.93339033523E+02  0.91005334774E+02 0.  0.
        -11    1    3    3    0    0 -0.29450335067E+02 -0.17899866126E+02  0.20102588502E+02  0.39897888511E+02  0.51100000000E-03 0.  1.
         11    1    3    3    0    0  0.29450335067E+02  0.17899866126E+02 -0.40843953495E+02  0.53441145012E+02  0.51100000000E-03 0. -1.
<mgrwt>
<rscale>  0 0.91005335E+02</rscale>
<asrwt>0</asrwt>
<pdfrwt beam="2">  1        4 0.87754153E-02 0.91005335E+02</pdfrwt>
<pdfrwt beam="1">  1       -4 0.55844360E-02 0.91005335E+02</pdfrwt>
<totfact> 0.27015651E+04</totfact>
</mgrwt>
</event>
<event>
 5    1  0.1133829E+000  0.8603027E+02  0.7818608E-02  0.1312760E+00
         -4   -1    0    0    0  501 -0.00000000000E+00  0.00000000000E+00  0.27527388924E+02  0.27563989932E+02  0.14200000000E+01 0.  1.
          4   -1    0    0  501    0  0.00000000000E+00 -0.00000000000E+00 -0.67127987556E+02  0.67143004947E+02  0.14200000000E+01 0. -1.
         23    2    1    2    0    0  0.00000000000E+00  0.00000000000E+00 -0.39600598632E+02  0.94706994878E+02  0.86030270643E+02 0.  0.
        -11    1    3    3    0    0 -0.25518733908E+02  0.28224426917E+02 -0.41885519761E+02  0.56588168560E+02  0.51100000000E-03 0. -1.
         11    1    3    3    0    0  0.25518733908E+02 -0.28224426917E+02  0.22849211292E+01  0.38118826318E+02  0.51100000000E-03 0.  1.
<mgrwt>
<rscale>  0 0.86030271E+02</rscale>
<asrwt>0</asrwt>
<pdfrwt beam="2">  1        4 0.10331353E-01 0.86030271E+02</pdfrwt>
<pdfrwt beam="1">  1       -4 0.42389536E-02 0.86030271E+02</pdfrwt>
<totfact> 0.31335486E+04</totfact>
</mgrwt>
</event>
<event>
 5    1  0.1133829E+000  0.9329259E+02  0.7818608E-02  0.1295069E+00
         -4   -1    0    0    0  501 -0.00000000000E+00  0.00000000000E+00  0.13005560148E+02  0.13082851171E+02  0.14200000000E+01 0. -1.
          4   -1    0    0  501    0  0.00000000000E+00 -0.00000000000E+00 -0.16672760104E+03  0.16673364792E+03  0.14200000000E+01 0.  1.
         23    2    1    2    0    0  0.00000000000E+00  0.00000000000E+00 -0.15372204089E+03  0.17981649909E+03  0.93292590754E+02 0.  0.
        -11    1    3    3    0    0  0.32363507237E+02  0.52516233970E+01 -0.14081336383E+03  0.14458001100E+03  0.51100000000E-03 0.  1.
         11    1    3    3    0    0 -0.32363507237E+02 -0.52516233970E+01 -0.12908677064E+02  0.35236488088E+02  0.51100000000E-03 0. -1.
<mgrwt>
<rscale>  0 0.93292591E+02</rscale>
<asrwt>0</asrwt>
<pdfrwt beam="2">  1        4 0.25656809E-01 0.93292591E+02</pdfrwt>
<pdfrwt beam="1">  1       -4 0.20072661E-02 0.93292591E+02</pdfrwt>
<totfact> 0.20927083E+04</totfact>
</mgrwt>
</event>
