<event>
 5    1  0.1154861E-006  0.2000194E+02  0.7818608E-02  0.1745289E+00
         -4   -1    0    0    0  501 -0.00000000000E+00  0.00000000000E+00  0.21751635687E+01  0.25976405738E+01  0.14200000000E+01 0. -1.
          4   -1    0    0  501    0  0.00000000000E+00 -0.00000000000E+00 -0.41476534660E+02  0.41500835261E+02  0.14200000000E+01 0.  1.
       1023    2    1    2    0    0  0.00000000000E+00  0.00000000000E+00 -0.39301371091E+02  0.44098475835E+02  0.20001944939E+02 0.  0.
        -11    1    3    3    0    0 -0.85859136620E+01  0.51278564153E+01 -0.19471231874E+02  0.21889305512E+02  0.51100000000E-03 0.  1.
         11    1    3    3    0    0  0.85859136620E+01 -0.51278564153E+01 -0.19830139217E+02  0.22209170323E+02  0.51100000000E-03 0. -1.
<mgrwt>
<rscale>  0 0.20001945E+02</rscale>
<asrwt>0</asrwt>
<pdfrwt beam="2">  1        4 0.64153723E-02 0.20001945E+02</pdfrwt>
<pdfrwt beam="1">  1       -4 0.36900809E-03 0.20001945E+02</pdfrwt>
<totfact> 0.11773543E+06</totfact>
</mgrwt>
</event>
<event>
 5    1  0.1154861E-006  0.2000147E+02  0.7818608E-02  0.1745299E+00
          4   -1    0    0  501    0  0.00000000000E+00  0.00000000000E+00  0.11676565095E+03  0.11677428502E+03  0.14200000000E+01 0. -1.
         -4   -1    0    0    0  501 -0.00000000000E+00 -0.00000000000E+00 -0.25329553235E+00  0.14424141661E+01  0.14200000000E+01 0.  1.
       1023    2    1    2    0    0  0.00000000000E+00  0.00000000000E+00  0.11651235542E+03  0.11821669918E+03  0.20001474979E+02 0.  0.
        -11    1    3    3    0    0 -0.92846499359E+01  0.37158348859E+01  0.57954994290E+02  0.58811508370E+02  0.51100000000E-03 0. -1.
         11    1    3    3    0    0  0.92846499359E+01 -0.37158348859E+01  0.58557361125E+02  0.59405190813E+02  0.51100000000E-03 0.  1.
<mgrwt>
<rscale>  0 0.20001475E+02</rscale>
<asrwt>0</asrwt>
<pdfrwt beam="1">  1        4 0.18056073E-01 0.20001475E+02</pdfrwt>
<pdfrwt beam="2">  1       -4 0.13110342E-03 0.20001475E+02</pdfrwt>
<totfact> 0.93095882E+05</totfact>
</mgrwt>
</event>
<event>
 5    1  0.1154861E-006  0.2000082E+02  0.7818608E-02  0.1745312E+00
         -4   -1    0    0    0  501 -0.00000000000E+00  0.00000000000E+00  0.19748126610E+01  0.24323414740E+01  0.14200000000E+01 0.  1.
          4   -1    0    0  501    0  0.00000000000E+00 -0.00000000000E+00 -0.44914576238E+02  0.44937017687E+02  0.14200000000E+01 0. -1.
       1023    2    1    2    0    0  0.00000000000E+00  0.00000000000E+00 -0.42939763577E+02  0.47369359161E+02  0.20000822266E+02 0.  0.
        -11    1    3    3    0    0  0.77280220027E+01  0.63466968031E+01 -0.21296841857E+02  0.23527820930E+02  0.51100000000E-03 0. -1.
         11    1    3    3    0    0 -0.77280220027E+01 -0.63466968031E+01 -0.21642921720E+02  0.23841538231E+02  0.51100000000E-03 0.  1.
<mgrwt>
<rscale>  0 0.20000822E+02</rscale>
<asrwt>0</asrwt>
<pdfrwt beam="2">  1        4 0.69468549E-02 0.20000822E+02</pdfrwt>
<pdfrwt beam="1">  1       -4 0.34073815E-03 0.20000822E+02</pdfrwt>
<totfact> 0.11631331E+06</totfact>
</mgrwt>
</event>
<event>
 5    1  0.1196744E-006  0.2000080E+02  0.7818608E-02  0.1745312E+00
         -4   -1    0    0    0  501 -0.00000000000E+00  0.00000000000E+00  0.11847082892E+02  0.11931880533E+02  0.14200000000E+01 0. -1.
          4   -1    0    0  501    0  0.00000000000E+00 -0.00000000000E+00 -0.82659115239E+01  0.83869954883E+01  0.14200000000E+01 0.  1.
       1023    2    1    2    0    0  0.00000000000E+00  0.00000000000E+00  0.35811713685E+01  0.20318876022E+02  0.20000798344E+02 0.  0.
        -11    1    3    3    0    0  0.58730936872E+01  0.80938747915E+01  0.17267796708E+01  0.10148192297E+02  0.51100000000E-03 0.  1.
         11    1    3    3    0    0 -0.58730936872E+01 -0.80938747915E+01  0.18543916977E+01  0.10170683725E+02  0.51100000000E-03 0. -1.
<mgrwt>
<rscale>  0 0.20000798E+02</rscale>
<asrwt>0</asrwt>
<pdfrwt beam="2">  1        4 0.12875157E-02 0.20000798E+02</pdfrwt>
<pdfrwt beam="1">  1       -4 0.18384652E-02 0.20000798E+02</pdfrwt>
<totfact> 0.12994007E+06</totfact>
</mgrwt>
</event>
<event>
 5    1  0.1154861E-006  0.2000054E+02  0.7818608E-02  0.1745317E+00
          4   -1    0    0  501    0  0.00000000000E+00  0.00000000000E+00  0.46584045129E+01  0.48700238814E+01  0.14200000000E+01 0. -1.
         -4   -1    0    0    0  501 -0.00000000000E+00 -0.00000000000E+00 -0.20754532083E+02  0.20803052709E+02  0.14200000000E+01 0.  1.
       1023    2    1    2    0    0  0.00000000000E+00  0.00000000000E+00 -0.16096127570E+02  0.25673076590E+02  0.20000538464E+02 0.  0.
        -11    1    3    3    0    0  0.23816585608E+01  0.97123298005E+01 -0.79695970294E+01  0.12787342364E+02  0.51100000000E-03 0.  1.
         11    1    3    3    0    0 -0.23816585608E+01 -0.97123298005E+01 -0.81265305409E+01  0.12885734226E+02  0.51100000000E-03 0. -1.
<mgrwt>
<rscale>  0 0.20000538E+02</rscale>
<asrwt>0</asrwt>
<pdfrwt beam="1">  1        4 0.73668840E-03 0.20000538E+02</pdfrwt>
<pdfrwt beam="2">  1       -4 0.32130157E-02 0.20000538E+02</pdfrwt>
<totfact> 0.12687509E+06</totfact>
</mgrwt>
</event>
<event>
 5    1  0.1172429E-006  0.2000051E+02  0.7818608E-02  0.1745318E+00
         -4   -1    0    0    0  501 -0.00000000000E+00  0.00000000000E+00  0.62821424560E+01  0.64406299255E+01  0.14200000000E+01 0.  1.
          4   -1    0    0  501    0  0.00000000000E+00 -0.00000000000E+00 -0.15529357871E+02  0.15594144923E+02  0.14200000000E+01 0. -1.
       1023    2    1    2    0    0  0.00000000000E+00  0.00000000000E+00 -0.92472154147E+01  0.22034774848E+02  0.20000507736E+02 0.  0.
        -11    1    3    3    0    0  0.59439713041E+00 -0.99825704039E+01 -0.46152648263E+01  0.11013886212E+02  0.51100000000E-03 0. -1.
         11    1    3    3    0    0 -0.59439713041E+00  0.99825704039E+01 -0.46319505884E+01  0.11020888636E+02  0.51100000000E-03 0.  1.
<mgrwt>
<rscale>  0 0.20000508E+02</rscale>
<asrwt>0</asrwt>
<pdfrwt beam="2">  1        4 0.24063069E-02 0.20000508E+02</pdfrwt>
<pdfrwt beam="1">  1       -4 0.98365842E-03 0.20000508E+02</pdfrwt>
<totfact> 0.12893538E+06</totfact>
</mgrwt>
</event>
<event>
 5    1  0.1154861E-006  0.2000037E+02  0.7818608E-02  0.1745321E+00
         -4   -1    0    0    0  501 -0.00000000000E+00  0.00000000000E+00  0.11025173828E+02  0.11116242978E+02  0.14200000000E+01 0.  1.
          4   -1    0    0  501    0  0.00000000000E+00 -0.00000000000E+00 -0.88855034612E+01  0.89982538172E+01  0.14200000000E+01 0. -1.
       1023    2    1    2    0    0  0.00000000000E+00  0.00000000000E+00  0.21396703669E+01  0.20114496795E+02  0.20000369797E+02 0.  0.
        -11    1    3    3    0    0  0.34516284389E+01 -0.93856029485E+01  0.10903516086E+01  0.10059430823E+02  0.51100000000E-03 0. -1.
         11    1    3    3    0    0 -0.34516284389E+01  0.93856029485E+01  0.10493187583E+01  0.10055065972E+02  0.51100000000E-03 0.  1.
<mgrwt>
<rscale>  0 0.20000370E+02</rscale>
<asrwt>0</asrwt>
<pdfrwt beam="2">  1        4 0.13826790E-02 0.20000370E+02</pdfrwt>
<pdfrwt beam="1">  1       -4 0.17118590E-02 0.20000370E+02</pdfrwt>
<totfact> 0.13006760E+06</totfact>
</mgrwt>
</event>
<event>
 5    1  0.1154861E-006  0.2000089E+02  0.7818608E-02  0.1745310E+00
         -4   -1    0    0    0  501 -0.00000000000E+00  0.00000000000E+00  0.61781258033E+02  0.61797574743E+02  0.14200000000E+01 0.  1.
          4   -1    0    0  501    0  0.00000000000E+00 -0.00000000000E+00 -0.12875528255E+01  0.19168182695E+01  0.14200000000E+01 0. -1.
       1023    2    1    2    0    0  0.00000000000E+00  0.00000000000E+00  0.60493705207E+02  0.63714393012E+02  0.20000887661E+02 0.  0.
        -11    1    3    3    0    0  0.76060911242E+01 -0.64922161807E+01  0.30520579309E+02  0.32117086648E+02  0.51100000000E-03 0.  1.
         11    1    3    3    0    0 -0.76060911242E+01  0.64922161807E+01  0.29973125898E+02  0.31597306364E+02  0.51100000000E-03 0. -1.
<mgrwt>
<rscale>  0 0.20000888E+02</rscale>
<asrwt>0</asrwt>
<pdfrwt beam="2">  1        4 0.24774529E-03 0.20000888E+02</pdfrwt>
<pdfrwt beam="1">  1       -4 0.95544660E-02 0.20000888E+02</pdfrwt>
<totfact> 0.10977534E+06</totfact>
</mgrwt>
</event>
<event>
 5    1  0.1154861E-006  0.2000021E+02  0.7818608E-02  0.1745324E+00
          4   -1    0    0  501    0  0.00000000000E+00  0.00000000000E+00  0.16960543840E+02  0.17019883881E+02  0.14200000000E+01 0. -1.
         -4   -1    0    0    0  501 -0.00000000000E+00 -0.00000000000E+00 -0.57398526961E+01  0.59128934519E+01  0.14200000000E+01 0.  1.
       1023    2    1    2    0    0  0.00000000000E+00  0.00000000000E+00  0.11220691143E+02  0.22932777333E+02  0.20000209161E+02 0.  0.
        -11    1    3    3    0    0  0.82407945845E+01 -0.56648091144E+01  0.56522197712E+01  0.11486877134E+02  0.51100000000E-03 0.  1.
         11    1    3    3    0    0 -0.82407945845E+01  0.56648091144E+01  0.55684713722E+01  0.11445900199E+02  0.51100000000E-03 0. -1.
<mgrwt>
<rscale>  0 0.20000209E+02</rscale>
<asrwt>0</asrwt>
<pdfrwt beam="1">  1        4 0.26271899E-02 0.20000209E+02</pdfrwt>
<pdfrwt beam="2">  1       -4 0.90092971E-03 0.20000209E+02</pdfrwt>
<totfact> 0.12842152E+06</totfact>
</mgrwt>
</event>
<event>
 5    1  0.1154861E-006  0.2000027E+02  0.7818608E-02  0.1745323E+00
          4   -1    0    0  501    0  0.00000000000E+00  0.00000000000E+00  0.47409394355E+01  0.49490308881E+01  0.14200000000E+01 0. -1.
         -4   -1    0    0    0  501 -0.00000000000E+00 -0.00000000000E+00 -0.20407165597E+02  0.20456510154E+02  0.14200000000E+01 0.  1.
       1023    2    1    2    0    0  0.00000000000E+00  0.00000000000E+00 -0.15666226161E+02  0.25405541043E+02  0.20000271836E+02 0.  0.
        -11    1    3    3    0    0 -0.99449144135E+01 -0.10493334071E+01 -0.78113019877E+01  0.12689320797E+02  0.51100000000E-03 0.  1.
         11    1    3    3    0    0  0.99449144135E+01  0.10493334071E+01 -0.78549241736E+01  0.12716220245E+02  0.51100000000E-03 0. -1.
<mgrwt>
<rscale>  0 0.20000272E+02</rscale>
<asrwt>0</asrwt>
<pdfrwt beam="1">  1        4 0.74917808E-03 0.20000272E+02</pdfrwt>
<pdfrwt beam="2">  1       -4 0.31593667E-02 0.20000272E+02</pdfrwt>
<totfact> 0.12702674E+06</totfact>
</mgrwt>
</event>
<event>
 5    1  0.1154861E-006  0.2000038E+02  0.7818608E-02  0.1745321E+00
          4   -1    0    0  501    0  0.00000000000E+00  0.00000000000E+00  0.11001788859E+02  0.11093049991E+02  0.14200000000E+01 0.  1.
         -4   -1    0    0    0  501 -0.00000000000E+00 -0.00000000000E+00 -0.89044777988E+01  0.90169908988E+01  0.14200000000E+01 0. -1.
       1023    2    1    2    0    0  0.00000000000E+00  0.00000000000E+00  0.20973110607E+01  0.20110040890E+02  0.20000375769E+02 0.  0.
        -11    1    3    3    0    0  0.94669543668E+01  0.32216084997E+01  0.10063396228E+01  0.10050607246E+02  0.51100000000E-03 0. -1.
         11    1    3    3    0    0 -0.94669543668E+01 -0.32216084997E+01  0.10909714379E+01  0.10059433644E+02  0.51100000000E-03 0.  1.
<mgrwt>
<rscale>  0 0.20000376E+02</rscale>
<asrwt>0</asrwt>
<pdfrwt beam="1">  1        4 0.17082578E-02 0.20000376E+02</pdfrwt>
<pdfrwt beam="2">  1       -4 0.13855946E-02 0.20000376E+02</pdfrwt>
<totfact> 0.13007018E+06</totfact>
</mgrwt>
</event>
<event>
 5    1  0.1208952E-006  0.2000109E+02  0.7818608E-02  0.1745306E+00
         -4   -1    0    0    0  501 -0.00000000000E+00  0.00000000000E+00  0.35725546637E+01  0.38444176185E+01  0.14200000000E+01 0. -1.
          4   -1    0    0  501    0  0.00000000000E+00 -0.00000000000E+00 -0.26676685448E+02  0.26714452015E+02  0.14200000000E+01 0.  1.
       1023    2    1    2    0    0  0.00000000000E+00  0.00000000000E+00 -0.23104130784E+02  0.30558869634E+02  0.20001091320E+02 0.  0.
        -11    1    3    3    0    0  0.21297398887E+01 -0.97709642286E+01 -0.11463248336E+02  0.15212284398E+02  0.51100000000E-03 0. -1.
         11    1    3    3    0    0 -0.21297398887E+01  0.97709642286E+01 -0.11640882448E+02  0.15346585235E+02  0.51100000000E-03 0.  1.
<mgrwt>
<rscale>  0 0.20001091E+02</rscale>
<asrwt>0</asrwt>
<pdfrwt beam="2">  1        4 0.41279230E-02 0.20001091E+02</pdfrwt>
<pdfrwt beam="1">  1       -4 0.57344147E-03 0.20001091E+02</pdfrwt>
<totfact> 0.12425275E+06</totfact>
</mgrwt>
</event>
<event>
 5    1  0.1154861E-006  0.2000030E+02  0.7818608E-02  0.1745322E+00
         -4   -1    0    0    0  501 -0.00000000000E+00  0.00000000000E+00  0.35855825333E+02  0.35883932481E+02  0.14200000000E+01 0.  1.
          4   -1    0    0  501    0  0.00000000000E+00 -0.00000000000E+00 -0.25770985246E+01  0.29424202293E+01  0.14200000000E+01 0. -1.
       1023    2    1    2    0    0  0.00000000000E+00  0.00000000000E+00  0.33278726808E+02  0.38826352710E+02  0.20000300168E+02 0.  0.
        -11    1    3    3    0    0  0.16690214220E+01  0.98598359811E+01  0.16700855346E+02  0.19465882144E+02  0.51100000000E-03 0. -1.
         11    1    3    3    0    0 -0.16690214220E+01 -0.98598359811E+01  0.16577871462E+02  0.19360470566E+02  0.51100000000E-03 0.  1.
<mgrwt>
<rscale>  0 0.20000300E+02</rscale>
<asrwt>0</asrwt>
<pdfrwt beam="2">  1        4 0.42674048E-03 0.20000300E+02</pdfrwt>
<pdfrwt beam="1">  1       -4 0.55465443E-02 0.20000300E+02</pdfrwt>
<totfact> 0.12017225E+06</totfact>
</mgrwt>
</event>
<event>
 5    1  0.1154861E-006  0.2000205E+02  0.7818608E-02  0.1745287E+00
         -4   -1    0    0    0  501 -0.00000000000E+00  0.00000000000E+00  0.10644183712E+03  0.10645130854E+03  0.14200000000E+01 0. -1.
          4   -1    0    0  501    0  0.00000000000E+00 -0.00000000000E+00 -0.38817077081E+00  0.14720993673E+01  0.14200000000E+01 0.  1.
       1023    2    1    2    0    0  0.00000000000E+00  0.00000000000E+00  0.10605366635E+03  0.10792340791E+03  0.20002045591E+02 0.  0.
        -11    1    3    3    0    0  0.99685583361E+01 -0.80444150292E+00  0.53211806631E+02  0.54143472798E+02  0.51100000000E-03 0.  1.
         11    1    3    3    0    0 -0.99685583361E+01  0.80444150292E+00  0.52841859722E+02  0.53779935111E+02  0.51100000000E-03 0. -1.
<mgrwt>
<rscale>  0 0.20002046E+02</rscale>
<asrwt>0</asrwt>
<pdfrwt beam="2">  1        4 0.14382625E-03 0.20002046E+02</pdfrwt>
<pdfrwt beam="1">  1       -4 0.16459778E-01 0.20002046E+02</pdfrwt>
<totfact> 0.95792477E+05</totfact>
</mgrwt>
</event>
<event>
 5    1  0.1154861E-006  0.2000381E+02  0.7818608E-02  0.1745252E+00
         -4   -1    0    0    0  501 -0.00000000000E+00  0.00000000000E+00  0.40032802295E+02  0.40057978725E+02  0.14200000000E+01 0. -1.
          4   -1    0    0  501    0  0.00000000000E+00 -0.00000000000E+00 -0.22690266973E+01  0.26767297497E+01  0.14200000000E+01 0.  1.
       1023    2    1    2    0    0  0.00000000000E+00  0.00000000000E+00  0.37763775597E+02  0.42734708475E+02  0.20003813663E+02 0.  0.
        -11    1    3    3    0    0 -0.99598261542E+01  0.91616107417E+00  0.18827343534E+02  0.21319154602E+02  0.51100000000E-03 0. -1.
         11    1    3    3    0    0  0.99598261542E+01 -0.91616107417E+00  0.18936432064E+02  0.21415553873E+02  0.51100000000E-03 0.  1.
<mgrwt>
<rscale>  0 0.20003814E+02</rscale>
<asrwt>0</asrwt>
<pdfrwt beam="2">  1        4 0.38237943E-03 0.20003814E+02</pdfrwt>
<pdfrwt beam="1">  1       -4 0.61921914E-02 0.20003814E+02</pdfrwt>
<totfact> 0.11832598E+06</totfact>
</mgrwt>
</event>
<event>
 5    1  0.1154861E-006  0.2001031E+02  0.7818608E-02  0.1745123E+00
         -4   -1    0    0    0  501 -0.00000000000E+00  0.00000000000E+00  0.96605286885E+00  0.17174568831E+01  0.14200000000E+01 0.  1.
          4   -1    0    0  501    0  0.00000000000E+00 -0.00000000000E+00 -0.73846015525E+02  0.73859666997E+02  0.14200000000E+01 0. -1.
       1023    2    1    2    0    0  0.00000000000E+00  0.00000000000E+00 -0.72879962656E+02  0.75577123880E+02  0.20010314771E+02 0.  0.
        -11    1    3    3    0    0  0.58578655882E+01  0.81084284759E+01 -0.37213763300E+02  0.38534729541E+02  0.51100000000E-03 0.  1.
         11    1    3    3    0    0 -0.58578655882E+01 -0.81084284759E+01 -0.35666199356E+02  0.37042394339E+02  0.51100000000E-03 0. -1.
<mgrwt>
<rscale>  0 0.20010315E+02</rscale>
<asrwt>0</asrwt>
<pdfrwt beam="2">  1        4 0.11419773E-01 0.20010315E+02</pdfrwt>
<pdfrwt beam="1">  1       -4 0.20747400E-03 0.20010315E+02</pdfrwt>
<totfact> 0.10547258E+06</totfact>
</mgrwt>
</event>
<event>
 5    1  0.1154861E-006  0.2000043E+02  0.7818608E-02  0.1745319E+00
         -4   -1    0    0    0  501 -0.00000000000E+00  0.00000000000E+00  0.19165267090E+01  0.23852619618E+01  0.14200000000E+01 0. -1.
          4   -1    0    0  501    0  0.00000000000E+00 -0.00000000000E+00 -0.46013424949E+02  0.46035330731E+02  0.14200000000E+01 0.  1.
       1023    2    1    2    0    0  0.00000000000E+00  0.00000000000E+00 -0.44096898240E+02  0.48420592693E+02  0.20000434054E+02 0.  0.
        -11    1    3    3    0    0  0.95009040785E+01 -0.31203166770E+01 -0.22116316587E+02  0.24272103619E+02  0.51100000000E-03 0.  1.
         11    1    3    3    0    0 -0.95009040785E+01  0.31203166770E+01 -0.21980581653E+02  0.24148489074E+02  0.51100000000E-03 0. -1.
<mgrwt>
<rscale>  0 0.20000434E+02</rscale>
<asrwt>0</asrwt>
<pdfrwt beam="2">  1        4 0.71167294E-02 0.20000434E+02</pdfrwt>
<pdfrwt beam="1">  1       -4 0.33259191E-03 0.20000434E+02</pdfrwt>
<totfact> 0.11586650E+06</totfact>
</mgrwt>
</event>
<event>
 5    1  0.1154861E-006  0.2000046E+02  0.7818608E-02  0.1745319E+00
          4   -1    0    0  501    0  0.00000000000E+00  0.00000000000E+00  0.37767901231E+02  0.37794586429E+02  0.14200000000E+01 0. -1.
         -4   -1    0    0    0  501 -0.00000000000E+00 -0.00000000000E+00 -0.24277933789E+01  0.28125754551E+01  0.14200000000E+01 0.  1.
       1023    2    1    2    0    0  0.00000000000E+00  0.00000000000E+00  0.35340107852E+02  0.40607161885E+02  0.20000459328E+02 0.  0.
        -11    1    3    3    0    0  0.85081342856E+01 -0.52547476206E+01  0.17543725228E+02  0.20193638026E+02  0.51100000000E-03 0. -1.
         11    1    3    3    0    0 -0.85081342856E+01  0.52547476206E+01  0.17796382624E+02  0.20413523859E+02  0.51100000000E-03 0.  1.
<mgrwt>
<rscale>  0 0.20000459E+02</rscale>
<asrwt>0</asrwt>
<pdfrwt beam="1">  1        4 0.58420975E-02 0.20000459E+02</pdfrwt>
<pdfrwt beam="2">  1       -4 0.40515802E-03 0.20000459E+02</pdfrwt>
<totfact> 0.11933888E+06</totfact>
</mgrwt>
</event>
<event>
 4    1  0.1154861E-006  0.2003062E+02  0.7818608E-02  0.1744720E+00
          4   -1    0    0  501    0  0.00000000000E+00  0.00000000000E+00  0.16489177518E+02  0.16550207709E+02  0.14200000000E+01 0.  1.
         -4   -1    0    0    0  501 -0.00000000000E+00 -0.00000000000E+00 -0.59268804586E+01  0.60946133570E+01  0.14200000000E+01 0. -1.
        -11    1    1    2    0    0 -0.74494256347E+01 -0.66893043778E+01  0.49913432263E+01  0.11187235709E+02  0.51100000000E-03 0.  1.
         11    1    1    2    0    0  0.74494256347E+01  0.66893043778E+01  0.55709538330E+01  0.11457585357E+02  0.51100000000E-03 0. -1.
<mgrwt>
<rscale>  0 0.20030622E+02</rscale>
<asrwt>0</asrwt>
<pdfrwt beam="1">  1        4 0.25543937E-02 0.20030622E+02</pdfrwt>
<pdfrwt beam="2">  1       -4 0.92942494E-03 0.20030622E+02</pdfrwt>
<totfact> 0.12818905E+06</totfact>
</mgrwt>
</event>
<event>
 5    1  0.1154861E-006  0.2000645E+02  0.7818608E-02  0.1745200E+00
          4   -1    0    0  501    0  0.00000000000E+00  0.00000000000E+00  0.50992584955E+01  0.52932822713E+01  0.14200000000E+01 0.  1.
         -4   -1    0    0    0  501 -0.00000000000E+00 -0.00000000000E+00 -0.19036019482E+02  0.19088908762E+02  0.14200000000E+01 0. -1.
       1023    2    1    2    0    0  0.00000000000E+00  0.00000000000E+00 -0.13936760987E+02  0.24382191034E+02  0.20006447281E+02 0.  0.
        -11    1    3    3    0    0 -0.27999265773E+01 -0.96016880555E+01 -0.71880221264E+01  0.12316641779E+02  0.51100000000E-03 0.  1.
         11    1    3    3    0    0  0.27999265773E+01  0.96016880555E+01 -0.67487388606E+01  0.12065549255E+02  0.51100000000E-03 0. -1.
<mgrwt>
<rscale>  0 0.20006447E+02</rscale>
<asrwt>0</asrwt>
<pdfrwt beam="1">  1        4 0.80349463E-03 0.20006447E+02</pdfrwt>
<pdfrwt beam="2">  1       -4 0.29476117E-02 0.20006447E+02</pdfrwt>
<totfact> 0.12751852E+06</totfact>
</mgrwt>
</event>
<event>
 5    1  0.1154861E-006  0.2000010E+02  0.7818608E-02  0.1745326E+00
          4   -1    0    0  501    0  0.00000000000E+00  0.00000000000E+00  0.30445182204E+00  0.14522709499E+01  0.14200000000E+01 0. -1.
         -4   -1    0    0    0  501 -0.00000000000E+00 -0.00000000000E+00 -0.11269428367E+03  0.11270322965E+03  0.14200000000E+01 0.  1.
       1023    2    1    2    0    0  0.00000000000E+00  0.00000000000E+00 -0.11238983185E+03  0.11415550060E+03  0.20000100319E+02 0.  0.
        -11    1    3    3    0    0 -0.97887822952E+01  0.20446197212E+01 -0.56100384186E+02  0.56984680702E+02  0.51100000000E-03 0. -1.
         11    1    3    3    0    0  0.97887822952E+01 -0.20446197212E+01 -0.56289447666E+02  0.57170819895E+02  0.51100000000E-03 0.  1.
<mgrwt>
<rscale>  0 0.20000100E+02</rscale>
<asrwt>0</asrwt>
<pdfrwt beam="1">  1        4 0.13582076E-03 0.20000100E+02</pdfrwt>
<pdfrwt beam="2">  1       -4 0.17426552E-01 0.20000100E+02</pdfrwt>
<totfact> 0.94154710E+05</totfact>
</mgrwt>
</event>
<event>
 5    1  0.1154861E-006  0.2000071E+02  0.7818608E-02  0.1745314E+00
          4   -1    0    0  501    0  0.00000000000E+00  0.00000000000E+00  0.20368733840E+02  0.20418171276E+02  0.14200000000E+01 0. -1.
         -4   -1    0    0    0  501 -0.00000000000E+00 -0.00000000000E+00 -0.47504735767E+01  0.49581649027E+01  0.14200000000E+01 0.  1.
       1023    2    1    2    0    0  0.00000000000E+00  0.00000000000E+00  0.15618260264E+02  0.25376336179E+02  0.20000709592E+02 0.  0.
        -11    1    3    3    0    0 -0.59155639890E+01  0.80630485921E+01  0.78359213754E+01  0.12704657176E+02  0.51100000000E-03 0. -1.
         11    1    3    3    0    0  0.59155639890E+01 -0.80630485921E+01  0.77823388881E+01  0.12671679002E+02  0.51100000000E-03 0.  1.
<mgrwt>
<rscale>  0 0.20000710E+02</rscale>
<asrwt>0</asrwt>
<pdfrwt beam="1">  1        4 0.31534306E-02 0.20000710E+02</pdfrwt>
<pdfrwt beam="2">  1       -4 0.75062121E-03 0.20000710E+02</pdfrwt>
<totfact> 0.12703729E+06</totfact>
</mgrwt>
</event>
<event>
 5    1  0.1154861E-006  0.2000255E+02  0.7818608E-02  0.1745277E+00
          4   -1    0    0  501    0  0.00000000000E+00  0.00000000000E+00  0.91087908926E+02  0.91098976682E+02  0.14200000000E+01 0. -1.
         -4   -1    0    0    0  501 -0.00000000000E+00 -0.00000000000E+00 -0.62318703896E+00  0.15507295333E+01  0.14200000000E+01 0.  1.
       1023    2    1    2    0    0  0.00000000000E+00  0.00000000000E+00  0.90464721887E+02  0.92649706216E+02  0.20002553729E+02 0.  0.
        -11    1    3    3    0    0 -0.95357045019E+01 -0.30118978296E+01  0.45955140900E+02  0.47030587539E+02  0.51100000000E-03 0.  1.
         11    1    3    3    0    0  0.95357045019E+01  0.30118978296E+01  0.44509580988E+02  0.45619118677E+02  0.51100000000E-03 0. -1.
<mgrwt>
<rscale>  0 0.20002554E+02</rscale>
<asrwt>0</asrwt>
<pdfrwt beam="1">  1        4 0.14085732E-01 0.20002554E+02</pdfrwt>
<pdfrwt beam="2">  1       -4 0.16807563E-03 0.20002554E+02</pdfrwt>
<totfact> 0.10013177E+06</totfact>
</mgrwt>
</event>
<event>
 5    1  0.1154861E-006  0.2000061E+02  0.7818608E-02  0.1745316E+00
         -4   -1    0    0    0  501 -0.00000000000E+00  0.00000000000E+00  0.55305918170E+02  0.55324144681E+02  0.14200000000E+01 0. -1.
          4   -1    0    0  501    0  0.00000000000E+00 -0.00000000000E+00 -0.15079918467E+01  0.20713375895E+01  0.14200000000E+01 0.  1.
       1023    2    1    2    0    0  0.00000000000E+00  0.00000000000E+00  0.53797926323E+02  0.57395482270E+02  0.20000612698E+02 0.  0.
        -11    1    3    3    0    0 -0.24331917574E+01 -0.96997518461E+01  0.26833598994E+02  0.28636474001E+02  0.51100000000E-03 0.  1.
         11    1    3    3    0    0  0.24331917574E+01  0.96997518461E+01  0.26964327330E+02  0.28759008269E+02  0.51100000000E-03 0. -1.
<mgrwt>
<rscale>  0 0.20000613E+02</rscale>
<asrwt>0</asrwt>
<pdfrwt beam="2">  1        4 0.27673504E-03 0.20000613E+02</pdfrwt>
<pdfrwt beam="1">  1       -4 0.85533400E-02 0.20000613E+02</pdfrwt>
<totfact> 0.11219199E+06</totfact>
</mgrwt>
</event>
<event>
 5    1  0.1154861E-006  0.2000054E+02  0.7818608E-02  0.1745317E+00
          4   -1    0    0  501    0  0.00000000000E+00  0.00000000000E+00  0.15069911063E+01  0.20706091361E+01  0.14200000000E+01 0.  1.
         -4   -1    0    0    0  501 -0.00000000000E+00 -0.00000000000E+00 -0.55332224127E+02  0.55350441975E+02  0.14200000000E+01 0. -1.
       1023    2    1    2    0    0  0.00000000000E+00  0.00000000000E+00 -0.53825233021E+02  0.57421051111E+02  0.20000535017E+02 0.  0.
        -11    1    3    3    0    0  0.99985174893E+01  0.17439935358E+00 -0.27106972608E+02  0.28892710696E+02  0.51100000000E-03 0.  1.
         11    1    3    3    0    0 -0.99985174893E+01 -0.17439935358E+00 -0.26718260413E+02  0.28528340416E+02  0.51100000000E-03 0. -1.
<mgrwt>
<rscale>  0 0.20000535E+02</rscale>
<asrwt>0</asrwt>
<pdfrwt beam="1">  1        4 0.27660143E-03 0.20000535E+02</pdfrwt>
<pdfrwt beam="2">  1       -4 0.85574051E-02 0.20000535E+02</pdfrwt>
<totfact> 0.11218284E+06</totfact>
</mgrwt>
</event>
<event>
 5    1  0.1161338E-006  0.2000126E+02  0.7818608E-02  0.1745303E+00
          4   -1    0    0  501    0  0.00000000000E+00  0.00000000000E+00  0.32526883795E+01  0.35491381621E+01  0.14200000000E+01 0. -1.
         -4   -1    0    0    0  501 -0.00000000000E+00 -0.00000000000E+00 -0.29093037385E+02  0.29127671109E+02  0.14200000000E+01 0.  1.
       1023    2    1    2    0    0  0.00000000000E+00  0.00000000000E+00 -0.25840349005E+02  0.32676809272E+02  0.20001255647E+02 0.  0.
        -11    1    3    3    0    0 -0.85625964189E+01  0.51666688533E+01 -0.12910913505E+02  0.16331081172E+02  0.51100000000E-03 0. -1.
         11    1    3    3    0    0  0.85625964189E+01 -0.51666688533E+01 -0.12929435501E+02  0.16345728099E+02  0.51100000000E-03 0.  1.
<mgrwt>
<rscale>  0 0.20001256E+02</rscale>
<asrwt>0</asrwt>
<pdfrwt beam="1">  1        4 0.52588158E-03 0.20001256E+02</pdfrwt>
<pdfrwt beam="2">  1       -4 0.45013197E-02 0.20001256E+02</pdfrwt>
<totfact> 0.12316470E+06</totfact>
</mgrwt>
</event>
<event>
 5    1  0.1154861E-006  0.2000288E+02  0.7818608E-02  0.1745271E+00
         -4   -1    0    0    0  501 -0.00000000000E+00  0.00000000000E+00  0.22979937838E+02  0.23023769089E+02  0.14200000000E+01 0.  1.
          4   -1    0    0  501    0  0.00000000000E+00 -0.00000000000E+00 -0.41876807156E+01  0.44218853192E+01  0.14200000000E+01 0. -1.
       1023    2    1    2    0    0  0.00000000000E+00  0.00000000000E+00  0.18792257123E+02  0.27445654408E+02  0.20002875246E+02 0.  0.
        -11    1    3    3    0    0 -0.64382126619E+01  0.76526279907E+01  0.95667137324E+01  0.13839628223E+02  0.51100000000E-03 0.  1.
         11    1    3    3    0    0  0.64382126619E+01 -0.76526279907E+01  0.92255433902E+01  0.13606026185E+02  0.51100000000E-03 0. -1.
<mgrwt>
<rscale>  0 0.20002875E+02</rscale>
<asrwt>0</asrwt>
<pdfrwt beam="2">  1        4 0.66564596E-03 0.20002875E+02</pdfrwt>
<pdfrwt beam="1">  1       -4 0.35567623E-02 0.20002875E+02</pdfrwt>
<totfact> 0.12587686E+06</totfact>
</mgrwt>
</event>
<event>
 5    1  0.1154861E-006  0.2000058E+02  0.7818608E-02  0.1745317E+00
         -4   -1    0    0    0  501 -0.00000000000E+00  0.00000000000E+00  0.31244458767E+02  0.31276710243E+02  0.14200000000E+01 0.  1.
          4   -1    0    0  501    0  0.00000000000E+00 -0.00000000000E+00 -0.30075841342E+01  0.33259528446E+01  0.14200000000E+01 0. -1.
       1023    2    1    2    0    0  0.00000000000E+00  0.00000000000E+00  0.28236874633E+02  0.34602663088E+02  0.20000580085E+02 0.  0.
        -11    1    3    3    0    0 -0.50149589486E+01  0.86517243098E+01  0.14013858321E+02  0.17215991755E+02  0.51100000000E-03 0.  1.
         11    1    3    3    0    0  0.50149589486E+01 -0.86517243098E+01  0.14223016312E+02  0.17386671333E+02  0.51100000000E-03 0. -1.
<mgrwt>
<rscale>  0 0.20000580E+02</rscale>
<asrwt>0</asrwt>
<pdfrwt beam="2">  1        4 0.48967602E-03 0.20000580E+02</pdfrwt>
<pdfrwt beam="1">  1       -4 0.48338107E-02 0.20000580E+02</pdfrwt>
<totfact> 0.12220891E+06</totfact>
</mgrwt>
</event>
<event>
 5    1  0.1154861E-006  0.2000024E+02  0.7818608E-02  0.1745323E+00
         -4   -1    0    0    0  501 -0.00000000000E+00  0.00000000000E+00  0.84525766955E+01  0.85710240224E+01  0.14200000000E+01 0. -1.
          4   -1    0    0  501    0  0.00000000000E+00 -0.00000000000E+00 -0.11586583272E+02  0.11673273402E+02  0.14200000000E+01 0.  1.
       1023    2    1    2    0    0  0.00000000000E+00  0.00000000000E+00 -0.31340065767E+01  0.20244297425E+02  0.20000239523E+02 0.  0.
        -11    1    3    3    0    0 -0.64780749242E+01 -0.76181737346E+01 -0.15475539158E+01  0.10119137768E+02  0.51100000000E-03 0.  1.
         11    1    3    3    0    0  0.64780749242E+01  0.76181737346E+01 -0.15864526609E+01  0.10125159657E+02  0.51100000000E-03 0. -1.
<mgrwt>
<rscale>  0 0.20000240E+02</rscale>
<asrwt>0</asrwt>
<pdfrwt beam="2">  1        4 0.17983311E-02 0.20000240E+02</pdfrwt>
<pdfrwt beam="1">  1       -4 0.13161762E-02 0.20000240E+02</pdfrwt>
<totfact> 0.12999185E+06</totfact>
</mgrwt>
</event>
<event>
 5    1  0.1154861E-006  0.2000363E+02  0.7818608E-02  0.1745256E+00
         -4   -1    0    0    0  501 -0.00000000000E+00  0.00000000000E+00  0.35560509277E+02  0.35588849659E+02  0.14200000000E+01 0. -1.
          4   -1    0    0  501    0  0.00000000000E+00 -0.00000000000E+00 -0.26024998623E+01  0.29646931600E+01  0.14200000000E+01 0.  1.
       1023    2    1    2    0    0  0.00000000000E+00  0.00000000000E+00  0.32958009415E+02  0.38553542819E+02  0.20003631653E+02 0.  0.
        -11    1    3    3    0    0 -0.37836232612E+01  0.92582582356E+01  0.16340437726E+02  0.19158315581E+02  0.51100000000E-03 0. -1.
         11    1    3    3    0    0  0.37836232612E+01 -0.92582582356E+01  0.16617571688E+02  0.19395227238E+02  0.51100000000E-03 0.  1.
<mgrwt>
<rscale>  0 0.20003632E+02</rscale>
<asrwt>0</asrwt>
<pdfrwt beam="2">  1        4 0.43042568E-03 0.20003632E+02</pdfrwt>
<pdfrwt beam="1">  1       -4 0.55008882E-02 0.20003632E+02</pdfrwt>
<totfact> 0.12026051E+06</totfact>
</mgrwt>
</event>
<event>
 5    1  0.1154861E-006  0.2000057E+02  0.7818608E-02  0.1745317E+00
         -4   -1    0    0    0  501 -0.00000000000E+00  0.00000000000E+00  0.92624512163E+02  0.92635396331E+02  0.14200000000E+01 0. -1.
          4   -1    0    0  501    0  0.00000000000E+00 -0.00000000000E+00 -0.59702583628E+00  0.15404024958E+01  0.14200000000E+01 0. -1.
       1023    2    1    2    0    0  0.00000000000E+00  0.00000000000E+00  0.92027486327E+02  0.94175798827E+02  0.20000571119E+02 0.  0.
        -11    1    3    3    0    0 -0.44457164496E+01 -0.89574384633E+01  0.46366497781E+02  0.47432607090E+02  0.51100000000E-03 0. -1.
         11    1    3    3    0    0  0.44457164496E+01  0.89574384633E+01  0.45660988546E+02  0.46743191737E+02  0.51100000000E-03 0.  1.
<mgrwt>
<rscale>  0 0.20000571E+02</rscale>
<asrwt>0</asrwt>
<pdfrwt beam="2">  1        4 0.16525476E-03 0.20000571E+02</pdfrwt>
<pdfrwt beam="1">  1       -4 0.14323334E-01 0.20000571E+02</pdfrwt>
<totfact> 0.99697572E+05</totfact>
</mgrwt>
</event>
<event>
 5    1  0.1154861E-006  0.2000040E+02  0.7818608E-02  0.1745320E+00
          4   -1    0    0  501    0  0.00000000000E+00  0.00000000000E+00  0.22613530005E+02  0.22658070070E+02  0.14200000000E+01 0.  1.
         -4   -1    0    0    0  501 -0.00000000000E+00 -0.00000000000E+00 -0.42580367445E+01  0.44885718127E+01  0.14200000000E+01 0. -1.
       1023    2    1    2    0    0  0.00000000000E+00  0.00000000000E+00  0.18355493260E+02  0.27146641882E+02  0.20000400812E+02 0.  0.
        -11    1    3    3    0    0 -0.73973655900E+01 -0.67291260285E+01  0.91193174969E+01  0.13533813456E+02  0.51100000000E-03 0.  1.
         11    1    3    3    0    0  0.73973655900E+01  0.67291260285E+01  0.92361757635E+01  0.13612828427E+02  0.51100000000E-03 0. -1.
<mgrwt>
<rscale>  0 0.20000401E+02</rscale>
<asrwt>0</asrwt>
<pdfrwt beam="1">  1        4 0.35001642E-02 0.20000401E+02</pdfrwt>
<pdfrwt beam="2">  1       -4 0.67624221E-03 0.20000401E+02</pdfrwt>
<totfact> 0.12607026E+06</totfact>
</mgrwt>
</event>
<event>
 4    1  0.1154861E-006  0.2002400E+02  0.7818608E-02  0.1744851E+00
          4   -1    0    0  501    0  0.00000000000E+00  0.00000000000E+00  0.25618236258E+01  0.29290510903E+01  0.14200000000E+01 0.  1.
         -4   -1    0    0    0  501 -0.00000000000E+00 -0.00000000000E+00 -0.36129421987E+02  0.36157316453E+02  0.14200000000E+01 0. -1.
        -11    1    1    2    0    0 -0.84350304569E+01 -0.53909812185E+01 -0.17108669472E+02  0.19822184256E+02  0.51100000000E-03 0. -1.
         11    1    1    2    0    0  0.84350304569E+01  0.53909812185E+01 -0.16458928889E+02  0.19264183288E+02  0.51100000000E-03 0.  1.
<mgrwt>
<rscale>  0 0.20023997E+02</rscale>
<asrwt>0</asrwt>
<pdfrwt beam="1">  1        4 0.42452073E-03 0.20023997E+02</pdfrwt>
<pdfrwt beam="2">  1       -4 0.55887663E-02 0.20023997E+02</pdfrwt>
<totfact> 0.11976230E+06</totfact>
</mgrwt>
</event>
<event>
 4    1  0.1154861E-006  0.2003639E+02  0.7818608E-02  0.1744605E+00
          4   -1    0    0  501    0  0.00000000000E+00  0.00000000000E+00  0.15161507537E+02  0.15227859691E+02  0.14200000000E+01 0.  1.
         -4   -1    0    0    0  501 -0.00000000000E+00 -0.00000000000E+00 -0.64616074181E+01  0.66157970363E+01  0.14200000000E+01 0. -1.
        -11    1    1    2    0    0 -0.96494240402E+01 -0.26929475640E+01  0.43829839947E+01  0.10934985133E+02  0.51100000000E-03 0.  1.
         11    1    1    2    0    0  0.96494240402E+01  0.26929475640E+01  0.43169161237E+01  0.10908671595E+02  0.51100000000E-03 0. -1.
<mgrwt>
<rscale>  0 0.20036394E+02</rscale>
<asrwt>0</asrwt>
<pdfrwt beam="1">  1        4 0.23495044E-02 0.20036394E+02</pdfrwt>
<pdfrwt beam="2">  1       -4 0.10110582E-02 0.20036394E+02</pdfrwt>
<totfact> 0.12857535E+06</totfact>
</mgrwt>
</event>
<event>
 5    1  0.1154861E-006  0.2000050E+02  0.7818608E-02  0.1745318E+00
         -4   -1    0    0    0  501 -0.00000000000E+00  0.00000000000E+00  0.38225997334E+02  0.38252362962E+02  0.14200000000E+01 0.  1.
          4   -1    0    0  501    0  0.00000000000E+00 -0.00000000000E+00 -0.23940941465E+01  0.27835385362E+01  0.14200000000E+01 0. -1.
       1023    2    1    2    0    0  0.00000000000E+00  0.00000000000E+00  0.35831903187E+02  0.41035901498E+02  0.20000498137E+02 0.  0.
        -11    1    3    3    0    0 -0.94522030788E+01 -0.32650768359E+01  0.17937605544E+02  0.20536858638E+02  0.51100000000E-03 0.  1.
         11    1    3    3    0    0  0.94522030788E+01  0.32650768359E+01  0.17894297643E+02  0.20499042860E+02  0.51100000000E-03 0. -1.
<mgrwt>
<rscale>  0 0.20000498E+02</rscale>
<asrwt>0</asrwt>
<pdfrwt beam="2">  1        4 0.40030755E-03 0.20000498E+02</pdfrwt>
<pdfrwt beam="1">  1       -4 0.59129082E-02 0.20000498E+02</pdfrwt>
<totfact> 0.11914065E+06</totfact>
</mgrwt>
</event>
<event>
 5    1  0.1158442E-006  0.2000154E+02  0.7818608E-02  0.1745297E+00
          4   -1    0    0  501    0  0.00000000000E+00  0.00000000000E+00  0.72079889162E+01  0.73465300800E+01  0.14200000000E+01 0.  1.
         -4   -1    0    0    0  501 -0.00000000000E+00 -0.00000000000E+00 -0.13567604320E+02  0.13641711292E+02  0.14200000000E+01 0. -1.
       1023    2    1    2    0    0  0.00000000000E+00  0.00000000000E+00 -0.63596154035E+01  0.20988241372E+02  0.20001539136E+02 0.  0.
        -11    1    3    3    0    0  0.79012341654E+01  0.61303683969E+01 -0.32499927669E+01  0.10515387357E+02  0.51100000000E-03 0. -1.
         11    1    3    3    0    0 -0.79012341654E+01 -0.61303683969E+01 -0.31096226366E+01  0.10472854015E+02  0.51100000000E-03 0.  1.
<mgrwt>
<rscale>  0 0.20001539E+02</rscale>
<asrwt>0</asrwt>
<pdfrwt beam="1">  1        4 0.11252789E-02 0.20001539E+02</pdfrwt>
<pdfrwt beam="2">  1       -4 0.21036813E-02 0.20001539E+02</pdfrwt>
<totfact> 0.12953410E+06</totfact>
</mgrwt>
</event>
<event>
 5    1  0.1179956E-006  0.2000152E+02  0.7818608E-02  0.1745298E+00
          4   -1    0    0  501    0  0.00000000000E+00  0.00000000000E+00  0.20190473063E+02  0.20240345909E+02  0.14200000000E+01 0.  1.
         -4   -1    0    0    0  501 -0.00000000000E+00 -0.00000000000E+00 -0.47945415372E+01  0.50004028389E+01  0.14200000000E+01 0. -1.
       1023    2    1    2    0    0  0.00000000000E+00  0.00000000000E+00  0.15395931526E+02  0.25240748748E+02  0.20001517187E+02 0.  0.
        -11    1    3    3    0    0 -0.91822644400E+01 -0.39617912241E+01  0.77907183895E+01  0.12676950076E+02  0.51100000000E-03 0. -1.
         11    1    3    3    0    0  0.91822644400E+01  0.39617912241E+01  0.76052131364E+01  0.12563798672E+02  0.51100000000E-03 0.  1.
<mgrwt>
<rscale>  0 0.20001517E+02</rscale>
<asrwt>0</asrwt>
<pdfrwt beam="1">  1        4 0.31258984E-02 0.20001517E+02</pdfrwt>
<pdfrwt beam="2">  1       -4 0.75729364E-03 0.20001517E+02</pdfrwt>
<totfact> 0.12710218E+06</totfact>
</mgrwt>
</event>
<event>
 5    1  0.1154861E-006  0.2000397E+02  0.7818608E-02  0.1745249E+00
         -4   -1    0    0    0  501 -0.00000000000E+00  0.00000000000E+00  0.29552916724E+01  0.32787419644E+01  0.14200000000E+01 0.  1.
          4   -1    0    0  501    0  0.00000000000E+00 -0.00000000000E+00 -0.31754546992E+02  0.31786280919E+02  0.14200000000E+01 0. -1.
       1023    2    1    2    0    0  0.00000000000E+00  0.00000000000E+00 -0.28799255320E+02  0.35065022884E+02  0.20003967678E+02 0.  0.
        -11    1    3    3    0    0  0.99795545376E+01 -0.66931381507E+00 -0.14423834384E+02  0.17552392668E+02  0.51100000000E-03 0.  1.
         11    1    3    3    0    0 -0.99795545376E+01  0.66931381507E+00 -0.14375420936E+02  0.17512630216E+02  0.51100000000E-03 0. -1.
<mgrwt>
<rscale>  0 0.20003968E+02</rscale>
<asrwt>0</asrwt>
<pdfrwt beam="2">  1        4 0.49126366E-02 0.20003968E+02</pdfrwt>
<pdfrwt beam="1">  1       -4 0.48198214E-03 0.20003968E+02</pdfrwt>
<totfact> 0.12193880E+06</totfact>
</mgrwt>
</event>
<event>
 5    1  0.1154861E-006  0.2000205E+02  0.7818608E-02  0.1745287E+00
          4   -1    0    0  501    0  0.00000000000E+00  0.00000000000E+00  0.48733545899E+02  0.48754229518E+02  0.14200000000E+01 0. -1.
         -4   -1    0    0    0  501 -0.00000000000E+00 -0.00000000000E+00 -0.17830488983E+01  0.22793997836E+01  0.14200000000E+01 0.  1.
       1023    2    1    2    0    0  0.00000000000E+00  0.00000000000E+00  0.46950497001E+02  0.51033629302E+02  0.20002053672E+02 0.  0.
        -11    1    3    3    0    0 -0.11802013147E+00  0.10000221225E+02  0.23356006793E+02  0.25407113312E+02  0.51100000000E-03 0.  1.
         11    1    3    3    0    0  0.11802013147E+00 -0.10000221225E+02  0.23594490208E+02  0.25626515990E+02  0.51100000000E-03 0. -1.
<mgrwt>
<rscale>  0 0.20002054E+02</rscale>
<asrwt>0</asrwt>
<pdfrwt beam="1">  1        4 0.75372396E-02 0.20002054E+02</pdfrwt>
<pdfrwt beam="2">  1       -4 0.31408713E-03 0.20002054E+02</pdfrwt>
<totfact> 0.11474588E+06</totfact>
</mgrwt>
</event>
<event>
 5    1  0.1154861E-006  0.2000036E+02  0.7818608E-02  0.1745321E+00
         -4   -1    0    0    0  501 -0.00000000000E+00  0.00000000000E+00  0.23552345135E+01  0.27501871961E+01  0.14200000000E+01 0. -1.
          4   -1    0    0  501    0  0.00000000000E+00 -0.00000000000E+00 -0.38766482417E+02  0.38792480702E+02  0.14200000000E+01 0.  1.
       1023    2    1    2    0    0  0.00000000000E+00  0.00000000000E+00 -0.36411247903E+02  0.41542667898E+02  0.20000357051E+02 0.  0.
        -11    1    3    3    0    0  0.15276681003E+01 -0.98827737065E+01 -0.18155414850E+02  0.20727326759E+02  0.51100000000E-03 0.  1.
         11    1    3    3    0    0 -0.15276681003E+01  0.98827737065E+01 -0.18255833054E+02  0.20815341138E+02  0.51100000000E-03 0. -1.
<mgrwt>
<rscale>  0 0.20000357E+02</rscale>
<asrwt>0</asrwt>
<pdfrwt beam="2">  1        4 0.59964546E-02 0.20000357E+02</pdfrwt>
<pdfrwt beam="1">  1       -4 0.39472464E-03 0.20000357E+02</pdfrwt>
<totfact> 0.11890977E+06</totfact>
</mgrwt>
</event>
<event>
 4    1  0.1154861E-006  0.2003205E+02  0.7818608E-02  0.1744692E+00
         -4   -1    0    0    0  501 -0.00000000000E+00  0.00000000000E+00  0.16611638902E+01  0.21853753614E+01  0.14200000000E+01 0.  1.
          4   -1    0    0  501    0  0.00000000000E+00 -0.00000000000E+00 -0.51626237715E+02  0.51645762852E+02  0.14200000000E+01 0. -1.
        -11    1    1    2    0    0  0.63430619596E+00  0.99859108533E+01 -0.23780913104E+02  0.25800243957E+02  0.51100000000E-03 0.  1.
         11    1    1    2    0    0 -0.63430619596E+00 -0.99859108533E+01 -0.26184160720E+02  0.28030894256E+02  0.51100000000E-03 0. -1.
<mgrwt>
<rscale>  0 0.20032045E+02</rscale>
<asrwt>0</asrwt>
<pdfrwt beam="2">  1        4 0.79843229E-02 0.20032045E+02</pdfrwt>
<pdfrwt beam="1">  1       -4 0.29738961E-03 0.20032045E+02</pdfrwt>
<totfact> 0.11325432E+06</totfact>
</mgrwt>
</event>
<event>
 4    1  0.1154861E-006  0.2005230E+02  0.7818608E-02  0.1744290E+00
         -4   -1    0    0    0  501 -0.00000000000E+00  0.00000000000E+00  0.60901000590E+00  0.15450867896E+01  0.14200000000E+01 0. -1.
          4   -1    0    0  501    0  0.00000000000E+00 -0.00000000000E+00 -0.92388689293E+02  0.92399601240E+02  0.14200000000E+01 0.  1.
        -11    1    1    2    0    0 -0.40763571482E+01  0.91597986347E+01 -0.46225096993E+02  0.47299875168E+02  0.51100000000E-03 0. -1.
         11    1    1    2    0    0  0.40763571482E+01 -0.91597986347E+01 -0.45554582294E+02  0.46644812861E+02  0.51100000000E-03 0.  1.
<mgrwt>
<rscale>  0 0.20052304E+02</rscale>
<asrwt>0</asrwt>
<pdfrwt beam="2">  1        4 0.14286483E-01 0.20052304E+02</pdfrwt>
<pdfrwt beam="1">  1       -4 0.16653921E-03 0.20052304E+02</pdfrwt>
<totfact> 0.99252526E+05</totfact>
</mgrwt>
</event>
<event>
 5    1  0.1164569E-006  0.2000076E+02  0.7818608E-02  0.1745313E+00
         -4   -1    0    0    0  501 -0.00000000000E+00  0.00000000000E+00  0.19231131832E+02  0.19283485980E+02  0.14200000000E+01 0. -1.
          4   -1    0    0  501    0  0.00000000000E+00 -0.00000000000E+00 -0.50426825487E+01  0.52388020851E+01  0.14200000000E+01 0.  1.
       1023    2    1    2    0    0  0.00000000000E+00  0.00000000000E+00  0.14188449284E+02  0.24522288065E+02  0.20000762958E+02 0.  0.
        -11    1    3    3    0    0  0.64501335380E+01 -0.76420067415E+01  0.71629256232E+01  0.12300894010E+02  0.51100000000E-03 0. -1.
         11    1    3    3    0    0 -0.64501335380E+01  0.76420067415E+01  0.70255236604E+01  0.12221394055E+02  0.51100000000E-03 0.  1.
<mgrwt>
<rscale>  0 0.20000763E+02</rscale>
<asrwt>0</asrwt>
<pdfrwt beam="2">  1        4 0.79491066E-03 0.20000763E+02</pdfrwt>
<pdfrwt beam="1">  1       -4 0.29777491E-02 0.20000763E+02</pdfrwt>
<totfact> 0.12751357E+06</totfact>
</mgrwt>
</event>
<event>
 5    1  0.1154861E-006  0.2000133E+02  0.7818608E-02  0.1745302E+00
          4   -1    0    0  501    0  0.00000000000E+00  0.00000000000E+00  0.77324875427E+02  0.77337912823E+02  0.14200000000E+01 0.  1.
         -4   -1    0    0    0  501 -0.00000000000E+00 -0.00000000000E+00 -0.88648231590E+00  0.16739925019E+01  0.14200000000E+01 0. -1.
       1023    2    1    2    0    0  0.00000000000E+00  0.00000000000E+00  0.76438393111E+02  0.79011905325E+02  0.20001330997E+02 0.  0.
        -11    1    3    3    0    0  0.92783284343E+01 -0.37316823599E+01  0.38305597915E+02  0.39589539826E+02  0.51100000000E-03 0. -1.
         11    1    3    3    0    0 -0.92783284343E+01  0.37316823599E+01  0.38132795197E+02  0.39422365499E+02  0.51100000000E-03 0.  1.
<mgrwt>
<rscale>  0 0.20001331E+02</rscale>
<asrwt>0</asrwt>
<pdfrwt beam="1">  1        4 0.11957721E-01 0.20001331E+02</pdfrwt>
<pdfrwt beam="2">  1       -4 0.19796239E-03 0.20001331E+02</pdfrwt>
<totfact> 0.10442184E+06</totfact>
</mgrwt>
</event>
<event>
 5    1  0.1201046E-006  0.2000113E+02  0.7818608E-02  0.1745306E+00
          4   -1    0    0  501    0  0.00000000000E+00  0.00000000000E+00  0.43425677839E+01  0.45688395636E+01  0.14200000000E+01 0. -1.
         -4   -1    0    0    0  501 -0.00000000000E+00 -0.00000000000E+00 -0.22196139932E+02  0.22241515863E+02  0.14200000000E+01 0.  1.
       1023    2    1    2    0    0  0.00000000000E+00  0.00000000000E+00 -0.17853572148E+02  0.26810355426E+02  0.20001127959E+02 0.  0.
        -11    1    3    3    0    0  0.15068035220E+01  0.98863675264E+01 -0.89585046999E+01  0.13426299804E+02  0.51100000000E-03 0.  1.
         11    1    3    3    0    0 -0.15068035220E+01 -0.98863675264E+01 -0.88950674480E+01  0.13384055622E+02  0.51100000000E-03 0. -1.
<mgrwt>
<rscale>  0 0.20001128E+02</rscale>
<asrwt>0</asrwt>
<pdfrwt beam="1">  1        4 0.68898334E-03 0.20001128E+02</pdfrwt>
<pdfrwt beam="2">  1       -4 0.34356867E-02 0.20001128E+02</pdfrwt>
<totfact> 0.12624358E+06</totfact>
</mgrwt>
</event>
<event>
 5    1  0.1154861E-006  0.2000147E+02  0.7818608E-02  0.1745299E+00
         -4   -1    0    0    0  501 -0.00000000000E+00  0.00000000000E+00  0.71342798604E+02  0.71356928974E+02  0.14200000000E+01 0. -1.
          4   -1    0    0  501    0  0.00000000000E+00 -0.00000000000E+00 -0.10242905539E+01  0.17508772483E+01  0.14200000000E+01 0.  1.
       1023    2    1    2    0    0  0.00000000000E+00  0.00000000000E+00  0.70318508050E+02  0.73107806222E+02  0.20001468853E+02 0.  0.
        -11    1    3    3    0    0 -0.30179355240E+01  0.95340188385E+01  0.34807929055E+02  0.36215982320E+02  0.51100000000E-03 0. -1.
         11    1    3    3    0    0  0.30179355240E+01 -0.95340188385E+01  0.35510578995E+02  0.36891823902E+02  0.51100000000E-03 0.  1.
<mgrwt>
<rscale>  0 0.20001469E+02</rscale>
<asrwt>0</asrwt>
<pdfrwt beam="2">  1        4 0.21456137E-03 0.20001469E+02</pdfrwt>
<pdfrwt beam="1">  1       -4 0.11032795E-01 0.20001469E+02</pdfrwt>
<totfact> 0.10640863E+06</totfact>
</mgrwt>
</event>
<event>
 5    1  0.1154861E-006  0.2000579E+02  0.7818608E-02  0.1745213E+00
         -4   -1    0    0    0  501 -0.00000000000E+00  0.00000000000E+00  0.21692435853E+02  0.21738863200E+02  0.14200000000E+01 0.  1.
          4   -1    0    0  501    0  0.00000000000E+00 -0.00000000000E+00 -0.44505751514E+01  0.46716184752E+01  0.14200000000E+01 0. -1.
       1023    2    1    2    0    0  0.00000000000E+00  0.00000000000E+00  0.17241860701E+02  0.26410481675E+02  0.20005793708E+02 0.  0.
        -11    1    3    3    0    0  0.14494063460E+01 -0.98964079393E+01  0.87994003658E+01  0.13321753485E+02  0.51100000000E-03 0.  1.
         11    1    3    3    0    0 -0.14494063460E+01  0.98964079393E+01  0.84424603357E+01  0.13088728190E+02  0.51100000000E-03 0. -1.
<mgrwt>
<rscale>  0 0.20005794E+02</rscale>
<asrwt>0</asrwt>
<pdfrwt beam="2">  1        4 0.70527852E-03 0.20005794E+02</pdfrwt>
<pdfrwt beam="1">  1       -4 0.33578726E-02 0.20005794E+02</pdfrwt>
<totfact> 0.12640183E+06</totfact>
</mgrwt>
</event>
<event>
 5    1  0.1154861E-006  0.2000022E+02  0.7818608E-02  0.1745324E+00
         -4   -1    0    0    0  501 -0.00000000000E+00  0.00000000000E+00  0.84924482191E+02  0.84936353085E+02  0.14200000000E+01 0. -1.
          4   -1    0    0  501    0  0.00000000000E+00 -0.00000000000E+00 -0.73306282690E+00  0.15980554146E+01  0.14200000000E+01 0.  1.
       1023    2    1    2    0    0  0.00000000000E+00  0.00000000000E+00  0.84191419364E+02  0.86534408500E+02  0.20000218995E+02 0.  0.
        -11    1    3    3    0    0  0.92486743840E+01  0.38031768047E+01  0.42128671015E+02  0.43299273128E+02  0.51100000000E-03 0.  1.
         11    1    3    3    0    0 -0.92486743840E+01 -0.38031768047E+01  0.42062748349E+02  0.43235135372E+02  0.51100000000E-03 0. -1.
<mgrwt>
<rscale>  0 0.20000219E+02</rscale>
<asrwt>0</asrwt>
<pdfrwt beam="2">  1        4 0.18022995E-03 0.20000219E+02</pdfrwt>
<pdfrwt beam="1">  1       -4 0.13132754E-01 0.20000219E+02</pdfrwt>
<totfact> 0.10202332E+06</totfact>
</mgrwt>
</event>
<event>
 5    1  0.1154861E-006  0.2000344E+02  0.7818608E-02  0.1745260E+00
         -4   -1    0    0    0  501 -0.00000000000E+00  0.00000000000E+00  0.70714613256E+02  0.70728869126E+02  0.14200000000E+01 0.  1.
          4   -1    0    0  501    0  0.00000000000E+00 -0.00000000000E+00 -0.10401634388E+01  0.17602102089E+01  0.14200000000E+01 0. -1.
       1023    2    1    2    0    0  0.00000000000E+00  0.00000000000E+00  0.69674449817E+02  0.72489079335E+02  0.20003441344E+02 0.  0.
        -11    1    3    3    0    0  0.90668635932E+01  0.42186071855E+01  0.35462313448E+02  0.36845357067E+02  0.51100000000E-03 0. -1.
         11    1    3    3    0    0 -0.90668635932E+01 -0.42186071855E+01  0.34212136369E+02  0.35643722269E+02  0.51100000000E-03 0.  1.
<mgrwt>
<rscale>  0 0.20003441E+02</rscale>
<asrwt>0</asrwt>
<pdfrwt beam="2">  1        4 0.21650994E-03 0.20003441E+02</pdfrwt>
<pdfrwt beam="1">  1       -4 0.10935657E-01 0.20003441E+02</pdfrwt>
<totfact> 0.10660117E+06</totfact>
</mgrwt>
</event>
<event>
 5    1  0.1154861E-006  0.2000074E+02  0.7818608E-02  0.1745313E+00
         -4   -1    0    0    0  501 -0.00000000000E+00  0.00000000000E+00  0.11007732562E+01  0.17966918939E+01  0.14200000000E+01 0.  1.
          4   -1    0    0  501    0  0.00000000000E+00 -0.00000000000E+00 -0.68325863144E+02  0.68340617310E+02  0.14200000000E+01 0. -1.
       1023    2    1    2    0    0  0.00000000000E+00  0.00000000000E+00 -0.67225089888E+02  0.70137309204E+02  0.20000735786E+02 0.  0.
        -11    1    3    3    0    0 -0.11500729818E+01 -0.99339268029E+01 -0.33760832503E+02  0.35210785011E+02  0.51100000000E-03 0. -1.
         11    1    3    3    0    0  0.11500729818E+01  0.99339268029E+01 -0.33464257385E+02  0.34926524193E+02  0.51100000000E-03 0.  1.
<mgrwt>
<rscale>  0 0.20000736E+02</rscale>
<asrwt>0</asrwt>
<pdfrwt beam="2">  1        4 0.10566336E-01 0.20000736E+02</pdfrwt>
<pdfrwt beam="1">  1       -4 0.22401692E-03 0.20000736E+02</pdfrwt>
<totfact> 0.10745163E+06</totfact>
</mgrwt>
</event>
<event>
 5    1  0.1154861E-006  0.2000022E+02  0.7818608E-02  0.1745324E+00
         -4   -1    0    0    0  501 -0.00000000000E+00  0.00000000000E+00  0.87011844262E+01  0.88162923283E+01  0.14200000000E+01 0.  1.
          4   -1    0    0  501    0  0.00000000000E+00 -0.00000000000E+00 -0.11257415103E+02  0.11346620414E+02  0.14200000000E+01 0. -1.
       1023    2    1    2    0    0  0.00000000000E+00  0.00000000000E+00 -0.25562306772E+01  0.20162912742E+02  0.20000218373E+02 0.  0.
        -11    1    3    3    0    0  0.89157780649E+01  0.45287394892E+01 -0.12377444191E+01  0.10076338193E+02  0.51100000000E-03 0. -1.
         11    1    3    3    0    0 -0.89157780649E+01 -0.45287394892E+01 -0.13184862581E+01  0.10086574549E+02  0.51100000000E-03 0.  1.
<mgrwt>
<rscale>  0 0.20000218E+02</rscale>
<asrwt>0</asrwt>
<pdfrwt beam="2">  1        4 0.17476264E-02 0.20000218E+02</pdfrwt>
<pdfrwt beam="1">  1       -4 0.13543601E-02 0.20000218E+02</pdfrwt>
<totfact> 0.13004066E+06</totfact>
</mgrwt>
</event>
<event>
 5    1  0.1154861E-006  0.2000016E+02  0.7818608E-02  0.1745325E+00
         -4   -1    0    0    0  501 -0.00000000000E+00  0.00000000000E+00  0.43936986512E+02  0.43959927022E+02  0.14200000000E+01 0. -1.
          4   -1    0    0  501    0  0.00000000000E+00 -0.00000000000E+00 -0.20286263726E+01  0.24762320084E+01  0.14200000000E+01 0.  1.
       1023    2    1    2    0    0  0.00000000000E+00  0.00000000000E+00  0.41908360139E+02  0.46436159030E+02  0.20000155397E+02 0.  0.
        -11    1    3    3    0    0  0.92728374042E+00  0.99569581510E+01  0.21014856511E+02  0.23272839646E+02  0.51100000000E-03 0. -1.
         11    1    3    3    0    0 -0.92728374042E+00 -0.99569581510E+01  0.20893503628E+02  0.23163319384E+02  0.51100000000E-03 0.  1.
<mgrwt>
<rscale>  0 0.20000155E+02</rscale>
<asrwt>0</asrwt>
<pdfrwt beam="2">  1        4 0.34829226E-03 0.20000155E+02</pdfrwt>
<pdfrwt beam="1">  1       -4 0.67957315E-02 0.20000155E+02</pdfrwt>
<totfact> 0.11672585E+06</totfact>
</mgrwt>
</event>
<event>
 5    1  0.1154861E-006  0.2000076E+02  0.7818608E-02  0.1745313E+00
          4   -1    0    0  501    0  0.00000000000E+00  0.00000000000E+00  0.31652590898E+02  0.31684426940E+02  0.14200000000E+01 0. -1.
         -4   -1    0    0    0  501 -0.00000000000E+00 -0.00000000000E+00 -0.29647755525E+01  0.32872928189E+01  0.14200000000E+01 0.  1.
       1023    2    1    2    0    0  0.00000000000E+00  0.00000000000E+00  0.28687815345E+02  0.34971719759E+02  0.20000760826E+02 0.  0.
        -11    1    3    3    0    0 -0.72898663768E+01  0.68453997765E+01  0.14208939917E+02  0.17375143847E+02  0.51100000000E-03 0. -1.
         11    1    3    3    0    0  0.72898663768E+01 -0.68453997765E+01  0.14478875428E+02  0.17596575912E+02  0.51100000000E-03 0.  1.
<mgrwt>
<rscale>  0 0.20000761E+02</rscale>
<asrwt>0</asrwt>
<pdfrwt beam="1">  1        4 0.48968875E-02 0.20000761E+02</pdfrwt>
<pdfrwt beam="2">  1       -4 0.48337724E-03 0.20000761E+02</pdfrwt>
<totfact> 0.12202441E+06</totfact>
</mgrwt>
</event>
<event>
 5    1  0.1154861E-006  0.2000074E+02  0.7818608E-02  0.1745313E+00
         -4   -1    0    0    0  501 -0.00000000000E+00  0.00000000000E+00  0.87063305697E+02  0.87074885007E+02  0.14200000000E+01 0. -1.
          4   -1    0    0  501    0  0.00000000000E+00 -0.00000000000E+00 -0.69362514048E+00  0.15803530731E+01  0.14200000000E+01 0.  1.
       1023    2    1    2    0    0  0.00000000000E+00  0.00000000000E+00  0.86369680557E+02  0.88655238080E+02  0.20000737974E+02 0.  0.
        -11    1    3    3    0    0  0.99649484218E+01  0.84049742794E+00  0.43305959757E+02  0.44445616024E+02  0.51100000000E-03 0.  1.
         11    1    3    3    0    0 -0.99649484218E+01 -0.84049742794E+00  0.43063720800E+02  0.44209622056E+02  0.51100000000E-03 0. -1.
<mgrwt>
<rscale>  0 0.20000738E+02</rscale>
<asrwt>0</asrwt>
<pdfrwt beam="2">  1        4 0.17581207E-03 0.20000738E+02</pdfrwt>
<pdfrwt beam="1">  1       -4 0.13463459E-01 0.20000738E+02</pdfrwt>
<totfact> 0.10136110E+06</totfact>
</mgrwt>
</event>
<event>
 5    1  0.1154861E-006  0.2000137E+02  0.7818608E-02  0.1745301E+00
          4   -1    0    0  501    0  0.00000000000E+00  0.00000000000E+00  0.12162492708E+01  0.18696690319E+01  0.14200000000E+01 0.  1.
         -4   -1    0    0    0  501 -0.00000000000E+00 -0.00000000000E+00 -0.64156490255E+02  0.64172203030E+02  0.14200000000E+01 0. -1.
       1023    2    1    2    0    0  0.00000000000E+00  0.00000000000E+00 -0.62940240984E+02  0.66041872062E+02  0.20001373213E+02 0.  0.
        -11    1    3    3    0    0 -0.94086742803E+01 -0.33894987698E+01 -0.31327003832E+02  0.32884540790E+02  0.51100000000E-03 0. -1.
         11    1    3    3    0    0  0.94086742803E+01  0.33894987698E+01 -0.31613237151E+02  0.33157331272E+02  0.51100000000E-03 0.  1.
<mgrwt>
<rscale>  0 0.20001373E+02</rscale>
<asrwt>0</asrwt>
<pdfrwt beam="1">  1        4 0.23858705E-03 0.20001373E+02</pdfrwt>
<pdfrwt beam="2">  1       -4 0.99216990E-02 0.20001373E+02</pdfrwt>
<totfact> 0.10891307E+06</totfact>
</mgrwt>
</event>
<event>
 5    1  0.1154861E-006  0.2000205E+02  0.7818608E-02  0.1745287E+00
          4   -1    0    0  501    0  0.00000000000E+00  0.00000000000E+00  0.19624060282E+01  0.24222793851E+01  0.14200000000E+01 0. -1.
         -4   -1    0    0    0  501 -0.00000000000E+00 -0.00000000000E+00 -0.45150434456E+02  0.45172758733E+02  0.14200000000E+01 0.  1.
       1023    2    1    2    0    0  0.00000000000E+00  0.00000000000E+00 -0.43188028427E+02  0.47595038118E+02  0.20002046245E+02 0.  0.
        -11    1    3    3    0    0  0.67418504357E+01  0.73866731250E+01 -0.21426160453E+02  0.23645207531E+02  0.51100000000E-03 0. -1.
         11    1    3    3    0    0 -0.67418504357E+01 -0.73866731250E+01 -0.21761867974E+02  0.23949830587E+02  0.51100000000E-03 0.  1.
<mgrwt>
<rscale>  0 0.20002046E+02</rscale>
<asrwt>0</asrwt>
<pdfrwt beam="1">  1        4 0.33900078E-03 0.20002046E+02</pdfrwt>
<pdfrwt beam="2">  1       -4 0.69833121E-02 0.20002046E+02</pdfrwt>
<totfact> 0.11620165E+06</totfact>
</mgrwt>
</event>
<event>
 5    1  0.1154861E-006  0.2000074E+02  0.7818608E-02  0.1745313E+00
         -4   -1    0    0    0  501 -0.00000000000E+00  0.00000000000E+00  0.15594626313E+01  0.21091049520E+01  0.14200000000E+01 0.  1.
          4   -1    0    0  501    0  0.00000000000E+00 -0.00000000000E+00 -0.53960855071E+02  0.53979535752E+02  0.14200000000E+01 0. -1.
       1023    2    1    2    0    0  0.00000000000E+00  0.00000000000E+00 -0.52401392439E+02  0.56088640704E+02  0.20000742146E+02 0.  0.
        -11    1    3    3    0    0 -0.33828122610E+01 -0.94108363703E+01 -0.26236318274E+02  0.28077600624E+02  0.51100000000E-03 0. -1.
         11    1    3    3    0    0  0.33828122610E+01  0.94108363703E+01 -0.26165074165E+02  0.28011040079E+02  0.51100000000E-03 0.  1.
<mgrwt>
<rscale>  0 0.20000742E+02</rscale>
<asrwt>0</asrwt>
<pdfrwt beam="2">  1        4 0.83453859E-02 0.20000742E+02</pdfrwt>
<pdfrwt beam="1">  1       -4 0.28363452E-03 0.20000742E+02</pdfrwt>
<totfact> 0.11270629E+06</totfact>
</mgrwt>
</event>
<event>
 5    1  0.1154861E-006  0.2000981E+02  0.7818608E-02  0.1745133E+00
         -4   -1    0    0    0  501 -0.00000000000E+00  0.00000000000E+00  0.41829806216E+01  0.44174344229E+01  0.14200000000E+01 0.  1.
          4   -1    0    0  501    0  0.00000000000E+00 -0.00000000000E+00 -0.23020585098E+02  0.23064339103E+02  0.14200000000E+01 0. -1.
       1023    2    1    2    0    0  0.00000000000E+00  0.00000000000E+00 -0.18837604477E+02  0.27481773526E+02  0.20009810937E+02 0.  0.
        -11    1    3    3    0    0  0.91379584366E+01  0.40728959089E+01 -0.93009147957E+01  0.13660079860E+02  0.51100000000E-03 0.  1.
         11    1    3    3    0    0 -0.91379584366E+01 -0.40728959089E+01 -0.95366896809E+01  0.13821693666E+02  0.51100000000E-03 0. -1.
<mgrwt>
<rscale>  0 0.20009811E+02</rscale>
<asrwt>0</asrwt>
<pdfrwt beam="2">  1        4 0.35630290E-02 0.20009811E+02</pdfrwt>
<pdfrwt beam="1">  1       -4 0.66493609E-03 0.20009811E+02</pdfrwt>
<totfact> 0.12576865E+06</totfact>
</mgrwt>
</event>
<event>
 5    1  0.1154861E-006  0.2000610E+02  0.7818608E-02  0.1745207E+00
          4   -1    0    0  501    0  0.00000000000E+00  0.00000000000E+00  0.27027370799E+01  0.30530620241E+01  0.14200000000E+01 0.  1.
         -4   -1    0    0    0  501 -0.00000000000E+00 -0.00000000000E+00 -0.34402886999E+02  0.34432180208E+02  0.14200000000E+01 0. -1.
       1023    2    1    2    0    0  0.00000000000E+00  0.00000000000E+00 -0.31700149919E+02  0.37485242232E+02  0.20006096078E+02 0.  0.
        -11    1    3    3    0    0 -0.77058762773E+01 -0.63762728786E+01 -0.15562325864E+02  0.18499280299E+02  0.51100000000E-03 0.  1.
         11    1    3    3    0    0  0.77058762773E+01  0.63762728786E+01 -0.16137824055E+02  0.18985961933E+02  0.51100000000E-03 0. -1.
<mgrwt>
<rscale>  0 0.20006096E+02</rscale>
<asrwt>0</asrwt>
<pdfrwt beam="1">  1        4 0.44500712E-03 0.20006096E+02</pdfrwt>
<pdfrwt beam="2">  1       -4 0.53219530E-02 0.20006096E+02</pdfrwt>
<totfact> 0.12073847E+06</totfact>
</mgrwt>
</event>
<event>
 5    1  0.1187068E-006  0.2000071E+02  0.7818608E-02  0.1745314E+00
          4   -1    0    0  501    0  0.00000000000E+00  0.00000000000E+00  0.14810975562E+02  0.14878890991E+02  0.14200000000E+01 0. -1.
         -4   -1    0    0    0  501 -0.00000000000E+00 -0.00000000000E+00 -0.65931026125E+01  0.67442866235E+01  0.14200000000E+01 0.  1.
       1023    2    1    2    0    0  0.00000000000E+00  0.00000000000E+00  0.82178729498E+01  0.21623177614E+02  0.20000709345E+02 0.  0.
        -11    1    3    3    0    0 -0.49511538117E+01 -0.86886804363E+01  0.41102712394E+01  0.10812096083E+02  0.51100000000E-03 0.  1.
         11    1    3    3    0    0  0.49511538117E+01  0.86886804363E+01  0.41076017104E+01  0.10811081531E+02  0.51100000000E-03 0. -1.
<mgrwt>
<rscale>  0 0.20000709E+02</rscale>
<asrwt>0</asrwt>
<pdfrwt beam="1">  1        4 0.22954654E-02 0.20000709E+02</pdfrwt>
<pdfrwt beam="2">  1       -4 0.10311773E-02 0.20000709E+02</pdfrwt>
<totfact> 0.12917230E+06</totfact>
</mgrwt>
</event>
<event>
 5    1  0.1154861E-006  0.2000079E+02  0.7818608E-02  0.1745312E+00
          4   -1    0    0  501    0  0.00000000000E+00  0.00000000000E+00  0.21220522930E+02  0.21267980473E+02  0.14200000000E+01 0. -1.
         -4   -1    0    0    0  501 -0.00000000000E+00 -0.00000000000E+00 -0.45517709239E+01  0.47681252651E+01  0.14200000000E+01 0.  1.
       1023    2    1    2    0    0  0.00000000000E+00  0.00000000000E+00  0.16668752006E+02  0.26036105738E+02  0.20000787699E+02 0.  0.
        -11    1    3    3    0    0 -0.88194688914E+01 -0.47141413267E+01  0.82804370033E+01  0.12983520216E+02  0.51100000000E-03 0. -1.
         11    1    3    3    0    0  0.88194688914E+01  0.47141413267E+01  0.83883150025E+01  0.13052585522E+02  0.51100000000E-03 0.  1.
<mgrwt>
<rscale>  0 0.20000788E+02</rscale>
<asrwt>0</asrwt>
<pdfrwt beam="1">  1        4 0.32849890E-02 0.20000788E+02</pdfrwt>
<pdfrwt beam="2">  1       -4 0.72056568E-03 0.20000788E+02</pdfrwt>
<totfact> 0.12667166E+06</totfact>
</mgrwt>
</event>
<event>
 5    1  0.1154861E-006  0.2000361E+02  0.7818608E-02  0.1745256E+00
         -4   -1    0    0    0  501 -0.00000000000E+00  0.00000000000E+00  0.78887413244E+02  0.78900192448E+02  0.14200000000E+01 0. -1.
          4   -1    0    0  501    0  0.00000000000E+00 -0.00000000000E+00 -0.85355457838E+00  0.16567906984E+01  0.14200000000E+01 0.  1.
       1023    2    1    2    0    0  0.00000000000E+00  0.00000000000E+00  0.78033858666E+02  0.80556983147E+02  0.20003610559E+02 0.  0.
        -11    1    3    3    0    0  0.44048389342E+01 -0.89776801144E+01  0.38266086288E+02  0.39551165676E+02  0.51100000000E-03 0.  1.
         11    1    3    3    0    0 -0.44048389342E+01  0.89776801144E+01  0.39767772378E+02  0.41005817471E+02  0.51100000000E-03 0. -1.
<mgrwt>
<rscale>  0 0.20003611E+02</rscale>
<asrwt>0</asrwt>
<pdfrwt beam="2">  1        4 0.19408649E-03 0.20003611E+02</pdfrwt>
<pdfrwt beam="1">  1       -4 0.12199296E-01 0.20003611E+02</pdfrwt>
<totfact> 0.10389237E+06</totfact>
</mgrwt>
</event>
<event>
 5    1  0.1199722E-006  0.2000231E+02  0.7818608E-02  0.1745282E+00
         -4   -1    0    0    0  501 -0.00000000000E+00  0.00000000000E+00  0.11662048475E+02  0.11748181758E+02  0.14200000000E+01 0. -1.
          4   -1    0    0  501    0  0.00000000000E+00 -0.00000000000E+00 -0.83993047387E+01  0.85184928299E+01  0.14200000000E+01 0.  1.
       1023    2    1    2    0    0  0.00000000000E+00  0.00000000000E+00  0.32627437362E+01  0.20266674588E+02  0.20002314921E+02 0.  0.
        -11    1    3    3    0    0  0.10421012347E+00 -0.10000299760E+02  0.15509806040E+01  0.10120395058E+02  0.51100000000E-03 0.  1.
         11    1    3    3    0    0 -0.10421012347E+00  0.10000299760E+02  0.17117631322E+01  0.10146279531E+02  0.51100000000E-03 0. -1.
<mgrwt>
<rscale>  0 0.20002315E+02</rscale>
<asrwt>0</asrwt>
<pdfrwt beam="2">  1        4 0.13079947E-02 0.20002315E+02</pdfrwt>
<pdfrwt beam="1">  1       -4 0.18099553E-02 0.20002315E+02</pdfrwt>
<totfact> 0.12995100E+06</totfact>
</mgrwt>
</event>
<event>
 5    1  0.1170154E-006  0.2000182E+02  0.7818608E-02  0.1745292E+00
          4   -1    0    0  501    0  0.00000000000E+00  0.00000000000E+00  0.23000669948E+01  0.27030923367E+01  0.14200000000E+01 0.  1.
         -4   -1    0    0    0  501 -0.00000000000E+00 -0.00000000000E+00 -0.39565219805E+02  0.39590693581E+02  0.14200000000E+01 0. -1.
       1023    2    1    2    0    0  0.00000000000E+00  0.00000000000E+00 -0.37265152810E+02  0.42293785917E+02  0.20001817749E+02 0.  0.
        -11    1    3    3    0    0 -0.50528989274E+01 -0.86301907260E+01 -0.18466100621E+02  0.21000210759E+02  0.51100000000E-03 0.  1.
         11    1    3    3    0    0  0.50528989274E+01  0.86301907260E+01 -0.18799052189E+02  0.21293575158E+02  0.51100000000E-03 0. -1.
<mgrwt>
<rscale>  0 0.20001818E+02</rscale>
<asrwt>0</asrwt>
<pdfrwt beam="1">  1        4 0.38681796E-03 0.20001818E+02</pdfrwt>
<pdfrwt beam="2">  1       -4 0.61199179E-02 0.20001818E+02</pdfrwt>
<totfact> 0.11854984E+06</totfact>
</mgrwt>
</event>
<event>
 5    1  0.1154861E-006  0.2000033E+02  0.7818608E-02  0.1745321E+00
         -4   -1    0    0    0  501 -0.00000000000E+00  0.00000000000E+00  0.49736103253E+01  0.51723495307E+01  0.14200000000E+01 0. -1.
          4   -1    0    0  501    0  0.00000000000E+00 -0.00000000000E+00 -0.19487855145E+02  0.19539521442E+02  0.14200000000E+01 0.  1.
       1023    2    1    2    0    0  0.00000000000E+00  0.00000000000E+00 -0.14514244820E+02  0.24711870972E+02  0.20000331604E+02 0.  0.
        -11    1    3    3    0    0 -0.39398285704E+01  0.91913406137E+01 -0.72793751426E+01  0.12369005383E+02  0.51100000000E-03 0.  1.
         11    1    3    3    0    0  0.39398285704E+01 -0.91913406137E+01 -0.72348696776E+01  0.12342865589E+02  0.51100000000E-03 0. -1.
<mgrwt>
<rscale>  0 0.20000332E+02</rscale>
<asrwt>0</asrwt>
<pdfrwt beam="2">  1        4 0.30173935E-02 0.20000332E+02</pdfrwt>
<pdfrwt beam="1">  1       -4 0.78443279E-03 0.20000332E+02</pdfrwt>
<totfact> 0.12741280E+06</totfact>
</mgrwt>
</event>
<event>
 5    1  0.1207071E-006  0.2000108E+02  0.7818608E-02  0.1745307E+00
         -4   -1    0    0    0  501 -0.00000000000E+00  0.00000000000E+00  0.10541119949E+02  0.10636334415E+02  0.14200000000E+01 0.  1.
          4   -1    0    0  501    0  0.00000000000E+00 -0.00000000000E+00 -0.92956508374E+01  0.94034846993E+01  0.14200000000E+01 0. -1.
       1023    2    1    2    0    0  0.00000000000E+00  0.00000000000E+00  0.12454691116E+01  0.20039819114E+02  0.20001078891E+02 0.  0.
        -11    1    3    3    0    0 -0.75557478511E+01 -0.65514378802E+01  0.63393899664E+00  0.10020605910E+02  0.51100000000E-03 0.  1.
         11    1    3    3    0    0  0.75557478511E+01  0.65514378802E+01  0.61153011497E+00  0.10019213204E+02  0.51100000000E-03 0. -1.
<mgrwt>
<rscale>  0 0.20001079E+02</rscale>
<asrwt>0</asrwt>
<pdfrwt beam="2">  1        4 0.14457192E-02 0.20001079E+02</pdfrwt>
<pdfrwt beam="1">  1       -4 0.16373299E-02 0.20001079E+02</pdfrwt>
<totfact> 0.13010249E+06</totfact>
</mgrwt>
</event>
<event>
 5    1  0.1154861E-006  0.2000026E+02  0.7818608E-02  0.1745323E+00
         -4   -1    0    0    0  501 -0.00000000000E+00  0.00000000000E+00  0.17460721026E+01  0.22505927636E+01  0.14200000000E+01 0.  1.
          4   -1    0    0  501    0  0.00000000000E+00 -0.00000000000E+00 -0.49527032455E+02  0.49547384833E+02  0.14200000000E+01 0. -1.
       1023    2    1    2    0    0  0.00000000000E+00  0.00000000000E+00 -0.47780960352E+02  0.51797977597E+02  0.20000257771E+02 0.  0.
        -11    1    3    3    0    0  0.11054044092E+01  0.99388337962E+01 -0.23930713379E+02  0.25936101851E+02  0.51100000000E-03 0. -1.
         11    1    3    3    0    0 -0.11054044092E+01 -0.99388337962E+01 -0.23850246973E+02  0.25861875745E+02  0.51100000000E-03 0.  1.
<mgrwt>
<rscale>  0 0.20000258E+02</rscale>
<asrwt>0</asrwt>
<pdfrwt beam="2">  1        4 0.76599174E-02 0.20000258E+02</pdfrwt>
<pdfrwt beam="1">  1       -4 0.30900136E-03 0.20000258E+02</pdfrwt>
<totfact> 0.11444961E+06</totfact>
</mgrwt>
</event>
<event>
 5    1  0.1161399E-006  0.2000194E+02  0.7818608E-02  0.1745289E+00
          4   -1    0    0  501    0  0.00000000000E+00  0.00000000000E+00  0.13512321593E+02  0.13586730101E+02  0.14200000000E+01 0. -1.
         -4   -1    0    0    0  501 -0.00000000000E+00 -0.00000000000E+00 -0.72381800931E+01  0.73761542189E+01  0.14200000000E+01 0.  1.
       1023    2    1    2    0    0  0.00000000000E+00  0.00000000000E+00  0.62741415003E+01  0.20962884320E+02  0.20001941592E+02 0.  0.
        -11    1    3    3    0    0  0.45729299985E+01 -0.88939631950E+01  0.32122565155E+01  0.10503945081E+02  0.51100000000E-03 0.  1.
         11    1    3    3    0    0 -0.45729299985E+01  0.88939631950E+01  0.30618849848E+01  0.10458939239E+02  0.51100000000E-03 0. -1.
<mgrwt>
<rscale>  0 0.20001942E+02</rscale>
<asrwt>0</asrwt>
<pdfrwt beam="1">  1        4 0.20951558E-02 0.20001942E+02</pdfrwt>
<pdfrwt beam="2">  1       -4 0.11299033E-02 0.20001942E+02</pdfrwt>
<totfact> 0.12954375E+06</totfact>
</mgrwt>
</event>
<event>
 5    1  0.1154861E-006  0.2000016E+02  0.7818608E-02  0.1745325E+00
          4   -1    0    0  501    0  0.00000000000E+00  0.00000000000E+00  0.17631525757E+01  0.22638699179E+01  0.14200000000E+01 0. -1.
         -4   -1    0    0    0  501 -0.00000000000E+00 -0.00000000000E+00 -0.49153039073E+02  0.49173546243E+02  0.14200000000E+01 0.  1.
       1023    2    1    2    0    0  0.00000000000E+00  0.00000000000E+00 -0.47389886497E+02  0.51437416160E+02  0.20000160976E+02 0.  0.
        -11    1    3    3    0    0 -0.74716555997E+01 -0.66464077975E+01 -0.23785342780E+02  0.25801994214E+02  0.51100000000E-03 0.  1.
         11    1    3    3    0    0  0.74716555997E+01  0.66464077975E+01 -0.23604543717E+02  0.25635421946E+02  0.51100000000E-03 0. -1.
<mgrwt>
<rscale>  0 0.20000161E+02</rscale>
<asrwt>0</asrwt>
<pdfrwt beam="1">  1        4 0.31134847E-03 0.20000161E+02</pdfrwt>
<pdfrwt beam="2">  1       -4 0.76020993E-02 0.20000161E+02</pdfrwt>
<totfact> 0.11460000E+06</totfact>
</mgrwt>
</event>
<event>
 4    1  0.1154861E-006  0.2008914E+02  0.7818608E-02  0.1743561E+00
          4   -1    0    0  501    0  0.00000000000E+00  0.00000000000E+00  0.62709659673E+01  0.64297289339E+01  0.14200000000E+01 0.  1.
         -4   -1    0    0    0  501 -0.00000000000E+00 -0.00000000000E+00 -0.15696644244E+02  0.15760743654E+02  0.14200000000E+01 0. -1.
        -11    1    1    2    0    0 -0.27468280237E+01  0.96254418739E+01 -0.37891793226E+01  0.10702900339E+02  0.51100000000E-03 0.  1.
         11    1    1    2    0    0  0.27468280237E+01 -0.96254418739E+01 -0.56364989543E+01  0.11487572249E+02  0.51100000000E-03 0. -1.
<mgrwt>
<rscale>  0 0.20089143E+02</rscale>
<asrwt>0</asrwt>
<pdfrwt beam="1">  1        4 0.98190726E-03 0.20089143E+02</pdfrwt>
<pdfrwt beam="2">  1       -4 0.24320116E-02 0.20089143E+02</pdfrwt>
<totfact> 0.12768787E+06</totfact>
</mgrwt>
</event>
<event>
 5    1  0.1154861E-006  0.2000330E+02  0.7818608E-02  0.1745262E+00
          4   -1    0    0  501    0  0.00000000000E+00  0.00000000000E+00  0.24320250994E+01  0.28162290539E+01  0.14200000000E+01 0.  1.
         -4   -1    0    0    0  501 -0.00000000000E+00 -0.00000000000E+00 -0.37721950053E+02  0.37748667735E+02  0.14200000000E+01 0. -1.
       1023    2    1    2    0    0  0.00000000000E+00  0.00000000000E+00 -0.35289924953E+02  0.40564896789E+02  0.20003300935E+02 0.  0.
        -11    1    3    3    0    0 -0.82479190020E+01 -0.56566515261E+01 -0.17473637518E+02  0.20133402165E+02  0.51100000000E-03 0. -1.
         11    1    3    3    0    0  0.82479190020E+01  0.56566515261E+01 -0.17816287435E+02  0.20431494624E+02  0.51100000000E-03 0.  1.
<mgrwt>
<rscale>  0 0.20003301E+02</rscale>
<asrwt>0</asrwt>
<pdfrwt beam="1">  1        4 0.40576709E-03 0.20003301E+02</pdfrwt>
<pdfrwt beam="2">  1       -4 0.58349859E-02 0.20003301E+02</pdfrwt>
<totfact> 0.11932412E+06</totfact>
</mgrwt>
</event>
<event>
 5    1  0.1154861E-006  0.2000085E+02  0.7818608E-02  0.1745311E+00
          4   -1    0    0  501    0  0.00000000000E+00  0.00000000000E+00  0.10949671776E+01  0.17931405745E+01  0.14200000000E+01 0.  1.
         -4   -1    0    0    0  501 -0.00000000000E+00 -0.00000000000E+00 -0.68548052629E+02  0.68562758982E+02  0.14200000000E+01 0. -1.
       1023    2    1    2    0    0  0.00000000000E+00  0.00000000000E+00 -0.67453085451E+02  0.70355899557E+02  0.20000846620E+02 0.  0.
        -11    1    3    3    0    0  0.12603286970E+01  0.99205099616E+01 -0.33935237004E+02  0.35378033540E+02  0.51100000000E-03 0. -1.
         11    1    3    3    0    0 -0.12603286970E+01 -0.99205099616E+01 -0.33517848447E+02  0.34977866017E+02  0.51100000000E-03 0.  1.
<mgrwt>
<rscale>  0 0.20000847E+02</rscale>
<asrwt>0</asrwt>
<pdfrwt beam="1">  1        4 0.22329345E-03 0.20000847E+02</pdfrwt>
<pdfrwt beam="2">  1       -4 0.10600689E-01 0.20000847E+02</pdfrwt>
<totfact> 0.10737342E+06</totfact>
</mgrwt>
</event>
<event>
 5    1  0.1154861E-006  0.2000029E+02  0.7818608E-02  0.1745322E+00
         -4   -1    0    0    0  501 -0.00000000000E+00  0.00000000000E+00  0.61435397935E+02  0.61451806479E+02  0.14200000000E+01 0. -1.
          4   -1    0    0  501    0  0.00000000000E+00 -0.00000000000E+00 -0.12982152222E+01  0.19239965601E+01  0.14200000000E+01 0.  1.
       1023    2    1    2    0    0  0.00000000000E+00  0.00000000000E+00  0.60137182713E+02  0.63375803039E+02  0.20000291651E+02 0.  0.
        -11    1    3    3    0    0  0.74460005659E+01 -0.66753270483E+01  0.30071120524E+02  0.31690301441E+02  0.51100000000E-03 0. -1.
         11    1    3    3    0    0 -0.74460005659E+01  0.66753270483E+01  0.30066062190E+02  0.31685501597E+02  0.51100000000E-03 0.  1.
<mgrwt>
<rscale>  0 0.20000292E+02</rscale>
<asrwt>0</asrwt>
<pdfrwt beam="2">  1        4 0.24912462E-03 0.20000292E+02</pdfrwt>
<pdfrwt beam="1">  1       -4 0.95009997E-02 0.20000292E+02</pdfrwt>
<totfact> 0.10990799E+06</totfact>
</mgrwt>
</event>
<event>
 4    1  0.1154861E-006  0.2002282E+02  0.7818608E-02  0.1744875E+00
          4   -1    0    0  501    0  0.00000000000E+00  0.00000000000E+00  0.14791988574E+02  0.14859990780E+02  0.14200000000E+01 0. -1.
         -4   -1    0    0    0  501 -0.00000000000E+00 -0.00000000000E+00 -0.66168116991E+01  0.67674660739E+01  0.14200000000E+01 0. -1.
        -11    1    1    2    0    0 -0.74761298205E+01 -0.66494436451E+01  0.37122880695E+01  0.10671864919E+02  0.51100000000E-03 0. -1.
         11    1    1    2    0    0  0.74761298205E+01  0.66494436451E+01  0.44628888056E+01  0.10955591934E+02  0.51100000000E-03 0.  1.
<mgrwt>
<rscale>  0 0.20022821E+02</rscale>
<asrwt>0</asrwt>
<pdfrwt beam="1">  1        4 0.22925102E-02 0.20022821E+02</pdfrwt>
<pdfrwt beam="2">  1       -4 0.10347908E-02 0.20022821E+02</pdfrwt>
<totfact> 0.12887896E+06</totfact>
</mgrwt>
</event>
<event>
 5    1  0.1220670E-006  0.2000123E+02  0.7818608E-02  0.1745304E+00
          4   -1    0    0  501    0  0.00000000000E+00  0.00000000000E+00  0.55578688814E+01  0.57364018777E+01  0.14200000000E+01 0. -1.
         -4   -1    0    0    0  501 -0.00000000000E+00 -0.00000000000E+00 -0.17502525270E+02  0.17560033907E+02  0.14200000000E+01 0.  1.
       1023    2    1    2    0    0  0.00000000000E+00  0.00000000000E+00 -0.11944656388E+02  0.23296435785E+02  0.20001227563E+02 0.  0.
        -11    1    3    3    0    0  0.26003126303E+01  0.96566371517E+01 -0.59758019886E+01  0.11649998992E+02  0.51100000000E-03 0.  1.
         11    1    3    3    0    0 -0.26003126303E+01 -0.96566371517E+01 -0.59688543997E+01  0.11646436792E+02  0.51100000000E-03 0. -1.
<mgrwt>
<rscale>  0 0.20001228E+02</rscale>
<asrwt>0</asrwt>
<pdfrwt beam="1">  1        4 0.87321381E-03 0.20001228E+02</pdfrwt>
<pdfrwt beam="2">  1       -4 0.27108532E-02 0.20001228E+02</pdfrwt>
<totfact> 0.12820044E+06</totfact>
</mgrwt>
</event>
<event>
 5    1  0.1154861E-006  0.2000170E+02  0.7818608E-02  0.1745294E+00
          4   -1    0    0  501    0  0.00000000000E+00  0.00000000000E+00  0.95770913178E+02  0.95781439804E+02  0.14200000000E+01 0.  1.
         -4   -1    0    0    0  501 -0.00000000000E+00 -0.00000000000E+00 -0.54607192978E+00  0.15213791613E+01  0.14200000000E+01 0. -1.
       1023    2    1    2    0    0  0.00000000000E+00  0.00000000000E+00  0.95224841248E+02  0.97302818966E+02  0.20001704624E+02 0.  0.
        -11    1    3    3    0    0  0.46237917760E+00  0.99899248387E+01  0.47944290525E+02  0.48976192043E+02  0.51100000000E-03 0.  1.
         11    1    3    3    0    0 -0.46237917760E+00 -0.99899248387E+01  0.47280550723E+02  0.48326626923E+02  0.51100000000E-03 0. -1.
<mgrwt>
<rscale>  0 0.20001705E+02</rscale>
<asrwt>0</asrwt>
<pdfrwt beam="1">  1        4 0.14809817E-01 0.20001705E+02</pdfrwt>
<pdfrwt beam="2">  1       -4 0.15984447E-03 0.20001705E+02</pdfrwt>
<totfact> 0.98770555E+05</totfact>
</mgrwt>
</event>
<event>
 5    1  0.1154861E-006  0.2000320E+02  0.7818608E-02  0.1745264E+00
         -4   -1    0    0    0  501 -0.00000000000E+00  0.00000000000E+00  0.41294064387E+02  0.41318472305E+02  0.14200000000E+01 0. -1.
          4   -1    0    0  501    0  0.00000000000E+00 -0.00000000000E+00 -0.21869627310E+01  0.26075287126E+01  0.14200000000E+01 0.  1.
       1023    2    1    2    0    0  0.00000000000E+00  0.00000000000E+00  0.39107101656E+02  0.43926001018E+02  0.20003203879E+02 0.  0.
        -11    1    3    3    0    0 -0.48360321485E+00 -0.99895946877E+01  0.19381102386E+02  0.21809470513E+02  0.51100000000E-03 0.  1.
         11    1    3    3    0    0  0.48360321485E+00  0.99895946877E+01  0.19725999270E+02  0.22116530504E+02  0.51100000000E-03 0. -1.
<mgrwt>
<rscale>  0 0.20003204E+02</rscale>
<asrwt>0</asrwt>
<pdfrwt beam="2">  1        4 0.37068459E-03 0.20003204E+02</pdfrwt>
<pdfrwt beam="1">  1       -4 0.63871614E-02 0.20003204E+02</pdfrwt>
<totfact> 0.11779748E+06</totfact>
</mgrwt>
</event>
<event>
 5    1  0.1154861E-006  0.2000064E+02  0.7818608E-02  0.1745315E+00
          4   -1    0    0  501    0  0.00000000000E+00  0.00000000000E+00  0.55124012143E+02  0.55142298780E+02  0.14200000000E+01 0.  1.
         -4   -1    0    0    0  501 -0.00000000000E+00 -0.00000000000E+00 -0.15148277689E+01  0.20763196212E+01  0.14200000000E+01 0. -1.
       1023    2    1    2    0    0  0.00000000000E+00  0.00000000000E+00  0.53609184374E+02  0.57218618402E+02  0.20000641052E+02 0.  0.
        -11    1    3    3    0    0 -0.99031037892E+01  0.13892519180E+01  0.27005357302E+02  0.28797409759E+02  0.51100000000E-03 0. -1.
         11    1    3    3    0    0  0.99031037892E+01 -0.13892519180E+01  0.26603827073E+02  0.28421208643E+02  0.51100000000E-03 0.  1.
<mgrwt>
<rscale>  0 0.20000641E+02</rscale>
<asrwt>0</asrwt>
<pdfrwt beam="1">  1        4 0.85252156E-02 0.20000641E+02</pdfrwt>
<pdfrwt beam="2">  1       -4 0.27764877E-03 0.20000641E+02</pdfrwt>
<totfact> 0.11226111E+06</totfact>
</mgrwt>
</event>
<event>
 5    1  0.1182570E-006  0.2000111E+02  0.7818608E-02  0.1745306E+00
         -4   -1    0    0    0  501 -0.00000000000E+00  0.00000000000E+00  0.48091709780E+01  0.50144317221E+01  0.14200000000E+01 0.  1.
          4   -1    0    0  501    0  0.00000000000E+00 -0.00000000000E+00 -0.20130597298E+02  0.20180618117E+02  0.14200000000E+01 0. -1.
       1023    2    1    2    0    0  0.00000000000E+00  0.00000000000E+00 -0.15321426320E+02  0.25195049839E+02  0.20001110767E+02 0.  0.
        -11    1    3    3    0    0 -0.93293879815E+01 -0.36015959124E+01 -0.77189111391E+01  0.12632915842E+02  0.51100000000E-03 0. -1.
         11    1    3    3    0    0  0.93293879815E+01  0.36015959124E+01 -0.76025151807E+01  0.12562133997E+02  0.51100000000E-03 0.  1.
<mgrwt>
<rscale>  0 0.20001111E+02</rscale>
<asrwt>0</asrwt>
<pdfrwt beam="2">  1        4 0.31166520E-02 0.20001111E+02</pdfrwt>
<pdfrwt beam="1">  1       -4 0.75950951E-03 0.20001111E+02</pdfrwt>
<totfact> 0.12713287E+06</totfact>
</mgrwt>
</event>
<event>
 4    1  0.1234269E-006  0.2038897E+02  0.7818608E-02  0.1737702E+00
         -4   -1    0    0    0  501 -0.00000000000E+00  0.00000000000E+00  0.10858096074E+02  0.10950554797E+02  0.14200000000E+01 0. -1.
          4   -1    0    0  501    0  0.00000000000E+00 -0.00000000000E+00 -0.93847565852E+01  0.94915781703E+01  0.14200000000E+01 0.  1.
        -11    1    1    2    0    0  0.65232542396E+01  0.76175025861E+01  0.25712841578E+01  0.10353293872E+02  0.51100000000E-03 0. -1.
         11    1    1    2    0    0 -0.65232542396E+01 -0.76175025861E+01 -0.10979446688E+01  0.10088839095E+02  0.51100000000E-03 0.  1.
<mgrwt>
<rscale>  0 0.20388969E+02</rscale>
<asrwt>0</asrwt>
<pdfrwt beam="2">  1        4 0.14591380E-02 0.20388969E+02</pdfrwt>
<pdfrwt beam="1">  1       -4 0.16858056E-02 0.20388969E+02</pdfrwt>
<totfact> 0.12484743E+06</totfact>
</mgrwt>
</event>
<event>
 5    1  0.1154861E-006  0.2000009E+02  0.7818608E-02  0.1745326E+00
         -4   -1    0    0    0  501 -0.00000000000E+00  0.00000000000E+00  0.44422221548E+02  0.44444911602E+02  0.14200000000E+01 0. -1.
          4   -1    0    0  501    0  0.00000000000E+00 -0.00000000000E+00 -0.20015497382E+01  0.24540988885E+01  0.14200000000E+01 0.  1.
       1023    2    1    2    0    0  0.00000000000E+00  0.00000000000E+00  0.42420671810E+02  0.46899010490E+02  0.20000094703E+02 0.  0.
        -11    1    3    3    0    0  0.45243476166E+01 -0.89179792259E+01  0.21141092800E+02  0.23386874094E+02  0.51100000000E-03 0.  1.
         11    1    3    3    0    0 -0.45243476166E+01  0.89179792259E+01  0.21279579010E+02  0.23512136397E+02  0.51100000000E-03 0. -1.
<mgrwt>
<rscale>  0 0.20000095E+02</rscale>
<asrwt>0</asrwt>
<pdfrwt beam="2">  1        4 0.34448757E-03 0.20000095E+02</pdfrwt>
<pdfrwt beam="1">  1       -4 0.68707453E-02 0.20000095E+02</pdfrwt>
<totfact> 0.11652536E+06</totfact>
</mgrwt>
</event>
<event>
 5    1  0.1166298E-006  0.2000283E+02  0.7818608E-02  0.1745272E+00
         -4   -1    0    0    0  501 -0.00000000000E+00  0.00000000000E+00  0.26458487016E+02  0.26496564592E+02  0.14200000000E+01 0. -1.
          4   -1    0    0  501    0  0.00000000000E+00 -0.00000000000E+00 -0.36048865619E+01  0.38744815297E+01  0.14200000000E+01 0.  1.
       1023    2    1    2    0    0  0.00000000000E+00  0.00000000000E+00  0.22853600455E+02  0.30371046122E+02  0.20002834519E+02 0.  0.
        -11    1    3    3    0    0  0.93723626283E+01 -0.34872452386E+01  0.11180631222E+02  0.15000285843E+02  0.51100000000E-03 0.  1.
         11    1    3    3    0    0 -0.93723626283E+01  0.34872452386E+01  0.11672969232E+02  0.15370760279E+02  0.51100000000E-03 0. -1.
<mgrwt>
<rscale>  0 0.20002835E+02</rscale>
<asrwt>0</asrwt>
<pdfrwt beam="2">  1        4 0.57826504E-03 0.20002835E+02</pdfrwt>
<pdfrwt beam="1">  1       -4 0.40942036E-02 0.20002835E+02</pdfrwt>
<totfact> 0.12432825E+06</totfact>
</mgrwt>
</event>
<event>
 5    1  0.1196752E-006  0.2000101E+02  0.7818608E-02  0.1745308E+00
         -4   -1    0    0    0  501 -0.00000000000E+00  0.00000000000E+00  0.40870079901E+02  0.40894740874E+02  0.14200000000E+01 0. -1.
          4   -1    0    0  501    0  0.00000000000E+00 -0.00000000000E+00 -0.22133925097E+01  0.26297350441E+01  0.14200000000E+01 0.  1.
       1023    2    1    2    0    0  0.00000000000E+00  0.00000000000E+00  0.38656687392E+02  0.43524475918E+02  0.20001013070E+02 0.  0.
        -11    1    3    3    0    0  0.53000597256E+01 -0.84804031656E+01  0.19431789266E+02  0.21854114150E+02  0.51100000000E-03 0.  1.
         11    1    3    3    0    0 -0.53000597256E+01  0.84804031656E+01  0.19224898125E+02  0.21670361768E+02  0.51100000000E-03 0. -1.
<mgrwt>
<rscale>  0 0.20001013E+02</rscale>
<asrwt>0</asrwt>
<pdfrwt beam="2">  1        4 0.37444531E-03 0.20001013E+02</pdfrwt>
<pdfrwt beam="1">  1       -4 0.63216273E-02 0.20001013E+02</pdfrwt>
<totfact> 0.11800345E+06</totfact>
</mgrwt>
</event>
<event>
 5    1  0.1164195E-006  0.2000204E+02  0.7818608E-02  0.1745288E+00
         -4   -1    0    0    0  501 -0.00000000000E+00  0.00000000000E+00  0.15937078204E+02  0.16000214426E+02  0.14200000000E+01 0. -1.
          4   -1    0    0  501    0  0.00000000000E+00 -0.00000000000E+00 -0.61189460506E+01  0.62815524172E+01  0.14200000000E+01 0.  1.
       1023    2    1    2    0    0  0.00000000000E+00  0.00000000000E+00  0.98181321531E+01  0.22281766843E+02  0.20002035263E+02 0.  0.
        -11    1    3    3    0    0  0.59324603019E+01 -0.80505674319E+01  0.50438165179E+01  0.11200259217E+02  0.51100000000E-03 0. -1.
         11    1    3    3    0    0 -0.59324603019E+01  0.80505674319E+01  0.47743156351E+01  0.11081507626E+02  0.51100000000E-03 0.  1.
<mgrwt>
<rscale>  0 0.20002035E+02</rscale>
<asrwt>0</asrwt>
<pdfrwt beam="2">  1        4 0.95874113E-03 0.20002035E+02</pdfrwt>
<pdfrwt beam="1">  1       -4 0.24692230E-02 0.20002035E+02</pdfrwt>
<totfact> 0.12877230E+06</totfact>
</mgrwt>
</event>
<event>
 5    1  0.1154861E-006  0.2000037E+02  0.7818608E-02  0.1745321E+00
          4   -1    0    0  501    0  0.00000000000E+00  0.00000000000E+00  0.37586558857E+02  0.37613372711E+02  0.14200000000E+01 0.  1.
         -4   -1    0    0    0  501 -0.00000000000E+00 -0.00000000000E+00 -0.24413242501E+01  0.28242634604E+01  0.14200000000E+01 0. -1.
       1023    2    1    2    0    0  0.00000000000E+00  0.00000000000E+00  0.35145234607E+02  0.40437636172E+02  0.20000372586E+02 0.  0.
        -11    1    3    3    0    0  0.69746937484E+01 -0.71664056467E+01  0.17569201445E+02  0.20215849289E+02  0.51100000000E-03 0.  1.
         11    1    3    3    0    0 -0.69746937484E+01  0.71664056467E+01  0.17576033162E+02  0.20221786883E+02  0.51100000000E-03 0. -1.
<mgrwt>
<rscale>  0 0.20000373E+02</rscale>
<asrwt>0</asrwt>
<pdfrwt beam="1">  1        4 0.58140672E-02 0.20000373E+02</pdfrwt>
<pdfrwt beam="2">  1       -4 0.40710780E-03 0.20000373E+02</pdfrwt>
<totfact> 0.11941838E+06</totfact>
</mgrwt>
</event>
<event>
 5    1  0.1154861E-006  0.2000030E+02  0.7818608E-02  0.1745322E+00
          4   -1    0    0  501    0  0.00000000000E+00  0.00000000000E+00  0.26881906480E+01  0.30401922571E+01  0.14200000000E+01 0. -1.
         -4   -1    0    0    0  501 -0.00000000000E+00 -0.00000000000E+00 -0.34547447757E+02  0.34576618495E+02  0.14200000000E+01 0.  1.
       1023    2    1    2    0    0  0.00000000000E+00  0.00000000000E+00 -0.31859257109E+02  0.37616810752E+02  0.20000304688E+02 0.  0.
        -11    1    3    3    0    0 -0.73801664279E+01 -0.67479274661E+01 -0.16006375048E+02  0.18873405205E+02  0.51100000000E-03 0. -1.
         11    1    3    3    0    0  0.73801664279E+01  0.67479274661E+01 -0.15852882061E+02  0.18743405547E+02  0.51100000000E-03 0.  1.
<mgrwt>
<rscale>  0 0.20000305E+02</rscale>
<asrwt>0</asrwt>
<pdfrwt beam="1">  1        4 0.44288877E-03 0.20000305E+02</pdfrwt>
<pdfrwt beam="2">  1       -4 0.53443126E-02 0.20000305E+02</pdfrwt>
<totfact> 0.12074638E+06</totfact>
</mgrwt>
</event>
<event>
 5    1  0.1170943E-006  0.2000138E+02  0.7818608E-02  0.1745301E+00
          4   -1    0    0  501    0  0.00000000000E+00  0.00000000000E+00  0.15658317880E+02  0.15722573544E+02  0.14200000000E+01 0.  1.
         -4   -1    0    0    0  501 -0.00000000000E+00 -0.00000000000E+00 -0.62298744663E+01  0.63896585093E+01  0.14200000000E+01 0. -1.
       1023    2    1    2    0    0  0.00000000000E+00  0.00000000000E+00  0.94284434140E+01  0.22112232053E+02  0.20001381481E+02 0.  0.
        -11    1    3    3    0    0 -0.97410080588E+01  0.22620243302E+01  0.46046511923E+01  0.11009396211E+02  0.51100000000E-03 0. -1.
         11    1    3    3    0    0  0.97410080588E+01 -0.22620243302E+01  0.48237922217E+01  0.11102835842E+02  0.51100000000E-03 0.  1.
<mgrwt>
<rscale>  0 0.20001381E+02</rscale>
<asrwt>0</asrwt>
<pdfrwt beam="1">  1        4 0.24262058E-02 0.20001381E+02</pdfrwt>
<pdfrwt beam="2">  1       -4 0.97567607E-03 0.20001381E+02</pdfrwt>
<totfact> 0.12887899E+06</totfact>
</mgrwt>
</event>
<event>
 5    1  0.1154861E-006  0.2000789E+02  0.7818608E-02  0.1745171E+00
         -4   -1    0    0    0  501 -0.00000000000E+00  0.00000000000E+00  0.12592913488E+02  0.12672721496E+02  0.14200000000E+01 0. -1.
          4   -1    0    0  501    0  0.00000000000E+00 -0.00000000000E+00 -0.77778415402E+01  0.79064036719E+01  0.14200000000E+01 0.  1.
       1023    2    1    2    0    0  0.00000000000E+00  0.00000000000E+00  0.48150719480E+01  0.20579125168E+02  0.20007885316E+02 0.  0.
        -11    1    3    3    0    0 -0.11519147131E+01  0.99366454801E+01  0.22814072105E+01  0.10260051171E+02  0.51100000000E-03 0. -1.
         11    1    3    3    0    0  0.11519147131E+01 -0.99366454801E+01  0.25336647375E+01  0.10319073998E+02  0.51100000000E-03 0.  1.
<mgrwt>
<rscale>  0 0.20007885E+02</rscale>
<asrwt>0</asrwt>
<pdfrwt beam="2">  1        4 0.12126195E-02 0.20007885E+02</pdfrwt>
<pdfrwt beam="1">  1       -4 0.19533998E-02 0.20007885E+02</pdfrwt>
<totfact> 0.12969202E+06</totfact>
</mgrwt>
</event>
<event>
 5    1  0.1154861E-006  0.2000233E+02  0.7818608E-02  0.1745282E+00
         -4   -1    0    0    0  501 -0.00000000000E+00  0.00000000000E+00  0.82777563864E+00  0.16436582698E+01  0.14200000000E+01 0.  1.
          4   -1    0    0  501    0  0.00000000000E+00 -0.00000000000E+00 -0.80119248121E+02  0.80131830875E+02  0.14200000000E+01 0. -1.
       1023    2    1    2    0    0  0.00000000000E+00  0.00000000000E+00 -0.79291472482E+02  0.81775489145E+02  0.20002325279E+02 0.  0.
        -11    1    3    3    0    0  0.82563015613E+01  0.56422706882E+01 -0.39045996755E+02  0.40306222805E+02  0.51100000000E-03 0.  1.
         11    1    3    3    0    0 -0.82563015613E+01 -0.56422706882E+01 -0.40245475727E+02  0.41469266340E+02  0.51100000000E-03 0. -1.
<mgrwt>
<rscale>  0 0.20002325E+02</rscale>
<asrwt>0</asrwt>
<pdfrwt beam="2">  1        4 0.12389762E-01 0.20002325E+02</pdfrwt>
<pdfrwt beam="1">  1       -4 0.19107827E-03 0.20002325E+02</pdfrwt>
<totfact> 0.10351099E+06</totfact>
</mgrwt>
</event>
<event>
 5    1  0.1154861E-006  0.2000052E+02  0.7818608E-02  0.1745318E+00
          4   -1    0    0  501    0  0.00000000000E+00  0.00000000000E+00  0.71273824394E+01  0.72674603843E+01  0.14200000000E+01 0. -1.
         -4   -1    0    0    0  501 -0.00000000000E+00 -0.00000000000E+00 -0.13717506433E+02  0.13790807907E+02  0.14200000000E+01 0.  1.
       1023    2    1    2    0    0  0.00000000000E+00  0.00000000000E+00 -0.65901239936E+01  0.21058268292E+02  0.20000523223E+02 0.  0.
        -11    1    3    3    0    0  0.85331567824E+01  0.52142946857E+01 -0.33371550099E+01  0.10542307032E+02  0.51100000000E-03 0.  1.
         11    1    3    3    0    0 -0.85331567824E+01 -0.52142946857E+01 -0.32529689836E+01  0.10515961259E+02  0.51100000000E-03 0. -1.
<mgrwt>
<rscale>  0 0.20000523E+02</rscale>
<asrwt>0</asrwt>
<pdfrwt beam="1">  1        4 0.11129342E-02 0.20000523E+02</pdfrwt>
<pdfrwt beam="2">  1       -4 0.21267994E-02 0.20000523E+02</pdfrwt>
<totfact> 0.12950621E+06</totfact>
</mgrwt>
</event>
<event>
 5    1  0.1154861E-006  0.2000353E+02  0.7818608E-02  0.1745258E+00
          4   -1    0    0  501    0  0.00000000000E+00  0.00000000000E+00  0.90088377844E+02  0.90099568381E+02  0.14200000000E+01 0.  1.
         -4   -1    0    0    0  501 -0.00000000000E+00 -0.00000000000E+00 -0.64048755387E+00  0.15577625964E+01  0.14200000000E+01 0. -1.
       1023    2    1    2    0    0  0.00000000000E+00  0.00000000000E+00  0.89447890290E+02  0.91657330978E+02  0.20003530805E+02 0.  0.
        -11    1    3    3    0    0  0.25808194346E+01  0.96630514812E+01  0.44674166485E+02  0.45780086766E+02  0.51100000000E-03 0. -1.
         11    1    3    3    0    0 -0.25808194346E+01 -0.96630514812E+01  0.44773723805E+02  0.45877244212E+02  0.51100000000E-03 0.  1.
<mgrwt>
<rscale>  0 0.20003531E+02</rscale>
<asrwt>0</asrwt>
<pdfrwt beam="1">  1        4 0.13931174E-01 0.20003531E+02</pdfrwt>
<pdfrwt beam="2">  1       -4 0.16995694E-03 0.20003531E+02</pdfrwt>
<totfact> 0.10041971E+06</totfact>
</mgrwt>
</event>
<event>
 5    1  0.1154861E-006  0.2000146E+02  0.7818608E-02  0.1745299E+00
          4   -1    0    0  501    0  0.00000000000E+00  0.00000000000E+00  0.84232242553E+01  0.85420786027E+01  0.14200000000E+01 0.  1.
         -4   -1    0    0    0  501 -0.00000000000E+00 -0.00000000000E+00 -0.11628140036E+02  0.11714522640E+02  0.14200000000E+01 0. -1.
       1023    2    1    2    0    0  0.00000000000E+00  0.00000000000E+00 -0.32049157805E+01  0.20256601243E+02  0.20001460166E+02 0.  0.
        -11    1    3    3    0    0  0.34899807553E+01 -0.93715801085E+01 -0.16937326015E+01  0.10142741729E+02  0.51100000000E-03 0.  1.
         11    1    3    3    0    0 -0.34899807553E+01  0.93715801085E+01 -0.15111831790E+01  0.10113859514E+02  0.51100000000E-03 0. -1.
<mgrwt>
<rscale>  0 0.20001460E+02</rscale>
<asrwt>0</asrwt>
<pdfrwt beam="1">  1        4 0.13116681E-02 0.20001460E+02</pdfrwt>
<pdfrwt beam="2">  1       -4 0.18047321E-02 0.20001460E+02</pdfrwt>
<totfact> 0.12996834E+06</totfact>
</mgrwt>
</event>
<event>
 5    1  0.1154861E-006  0.2000197E+02  0.7818608E-02  0.1745289E+00
          4   -1    0    0  501    0  0.00000000000E+00  0.00000000000E+00  0.61287173358E+00  0.15466129968E+01  0.14200000000E+01 0.  1.
         -4   -1    0    0    0  501 -0.00000000000E+00 -0.00000000000E+00 -0.91691280291E+02  0.91702275225E+02  0.14200000000E+01 0. -1.
       1023    2    1    2    0    0  0.00000000000E+00  0.00000000000E+00 -0.91078408557E+02  0.93248888222E+02  0.20001966134E+02 0.  0.
        -11    1    3    3    0    0  0.10000885509E+02 -0.42627090669E-01 -0.45485234988E+02  0.46571731020E+02  0.51100000000E-03 0.  1.
         11    1    3    3    0    0 -0.10000885509E+02  0.42627090669E-01 -0.45593173569E+02  0.46677157201E+02  0.51100000000E-03 0. -1.
<mgrwt>
<rscale>  0 0.20001966E+02</rscale>
<asrwt>0</asrwt>
<pdfrwt beam="1">  1        4 0.16696005E-03 0.20001966E+02</pdfrwt>
<pdfrwt beam="2">  1       -4 0.14179017E-01 0.20001966E+02</pdfrwt>
<totfact> 0.99958873E+05</totfact>
</mgrwt>
</event>
<event>
 5    1  0.1154861E-006  0.2000108E+02  0.7818608E-02  0.1745307E+00
         -4   -1    0    0    0  501 -0.00000000000E+00  0.00000000000E+00  0.25047960971E+02  0.25088179464E+02  0.14200000000E+01 0.  1.
          4   -1    0    0  501    0  0.00000000000E+00 -0.00000000000E+00 -0.38216022929E+01  0.40768914733E+01  0.14200000000E+01 0. -1.
       1023    2    1    2    0    0  0.00000000000E+00  0.00000000000E+00  0.21226358678E+02  0.29165070937E+02  0.20001076472E+02 0.  0.
        -11    1    3    3    0    0  0.82398502207E+01  0.56662506851E+01  0.10753317941E+02  0.14684528439E+02  0.51100000000E-03 0. -1.
         11    1    3    3    0    0 -0.82398502207E+01 -0.56662506851E+01  0.10473040737E+02  0.14480542498E+02  0.51100000000E-03 0.  1.
<mgrwt>
<rscale>  0 0.20001076E+02</rscale>
<asrwt>0</asrwt>
<pdfrwt beam="2">  1        4 0.61067016E-03 0.20001076E+02</pdfrwt>
<pdfrwt beam="1">  1       -4 0.38762639E-02 0.20001076E+02</pdfrwt>
<totfact> 0.12498213E+06</totfact>
</mgrwt>
</event>
<event>
 5    1  0.1231565E-006  0.2000129E+02  0.7818608E-02  0.1745302E+00
          4   -1    0    0  501    0  0.00000000000E+00  0.00000000000E+00  0.10336428892E+02  0.10433511500E+02  0.14200000000E+01 0. -1.
         -4   -1    0    0    0  501 -0.00000000000E+00 -0.00000000000E+00 -0.94803372186E+01  0.95860937705E+01  0.14200000000E+01 0.  1.
       1023    2    1    2    0    0  0.00000000000E+00  0.00000000000E+00  0.85609167303E+00  0.20019605271E+02  0.20001292515E+02 0.  0.
        -11    1    3    3    0    0 -0.78878280650E+00 -0.99691272713E+01  0.34283014022E+00  0.10006158585E+02  0.51100000000E-03 0. -1.
         11    1    3    3    0    0  0.78878280650E+00  0.99691272713E+01  0.51326153281E+00  0.10013446686E+02  0.51100000000E-03 0.  1.
<mgrwt>
<rscale>  0 0.20001293E+02</rscale>
<asrwt>0</asrwt>
<pdfrwt beam="1">  1        4 0.16058228E-02 0.20001293E+02</pdfrwt>
<pdfrwt beam="2">  1       -4 0.14741164E-02 0.20001293E+02</pdfrwt>
<totfact> 0.13011164E+06</totfact>
</mgrwt>
</event>
<event>
 5    1  0.1179527E-006  0.2000065E+02  0.7818608E-02  0.1745315E+00
          4   -1    0    0  501    0  0.00000000000E+00  0.00000000000E+00  0.63565602492E+01  0.65132371523E+01  0.14200000000E+01 0.  1.
         -4   -1    0    0    0  501 -0.00000000000E+00 -0.00000000000E+00 -0.15351423154E+02  0.15416957964E+02  0.14200000000E+01 0. -1.
       1023    2    1    2    0    0  0.00000000000E+00  0.00000000000E+00 -0.89948629046E+01  0.21930195116E+02  0.20000647468E+02 0.  0.
        -11    1    3    3    0    0 -0.28428005937E+01 -0.95877427013E+01 -0.44840381771E+01  0.10959604188E+02  0.51100000000E-03 0.  1.
         11    1    3    3    0    0  0.28428005937E+01  0.95877427013E+01 -0.45108247276E+01  0.10970590928E+02  0.51100000000E-03 0. -1.
<mgrwt>
<rscale>  0 0.20000647E+02</rscale>
<asrwt>0</asrwt>
<pdfrwt beam="1">  1        4 0.99502556E-03 0.20000647E+02</pdfrwt>
<pdfrwt beam="2">  1       -4 0.23788506E-02 0.20000647E+02</pdfrwt>
<totfact> 0.12899426E+06</totfact>
</mgrwt>
</event>
<event>
 4    1  0.1154861E-006  0.2009785E+02  0.7818608E-02  0.1743389E+00
          4   -1    0    0  501    0  0.00000000000E+00  0.00000000000E+00  0.22967963531E+02  0.23011817589E+02  0.14200000000E+01 0. -1.
         -4   -1    0    0    0  501 -0.00000000000E+00 -0.00000000000E+00 -0.42325119416E+01  0.44643652780E+01  0.14200000000E+01 0.  1.
        -11    1    1    2    0    0  0.29592073339E+01  0.95718137621E+01  0.83049332989E+01  0.13013394795E+02  0.51100000000E-03 0.  1.
         11    1    1    2    0    0 -0.29592073339E+01 -0.95718137621E+01  0.10430518290E+02  0.14462788072E+02  0.51100000000E-03 0. -1.
<mgrwt>
<rscale>  0 0.20097848E+02</rscale>
<asrwt>0</asrwt>
<pdfrwt beam="1">  1        4 0.35547411E-02 0.20097848E+02</pdfrwt>
<pdfrwt beam="2">  1       -4 0.67236394E-03 0.20097848E+02</pdfrwt>
<totfact> 0.12465271E+06</totfact>
</mgrwt>
</event>
<event>
 5    1  0.1154861E-006  0.2000033E+02  0.7818608E-02  0.1745322E+00
          4   -1    0    0  501    0  0.00000000000E+00  0.00000000000E+00  0.21699735865E+02  0.21746147627E+02  0.14200000000E+01 0. -1.
         -4   -1    0    0    0  501 -0.00000000000E+00 -0.00000000000E+00 -0.44464287290E+01  0.46676684161E+01  0.14200000000E+01 0.  1.
       1023    2    1    2    0    0  0.00000000000E+00  0.00000000000E+00  0.17253307136E+02  0.26413816043E+02  0.20000326768E+02 0.  0.
        -11    1    3    3    0    0 -0.87511646117E+01  0.48392559900E+01  0.86855211245E+01  0.13245359869E+02  0.51100000000E-03 0.  1.
         11    1    3    3    0    0  0.87511646117E+01 -0.48392559900E+01  0.85677860111E+01  0.13168456173E+02  0.51100000000E-03 0. -1.
<mgrwt>
<rscale>  0 0.20000327E+02</rscale>
<asrwt>0</asrwt>
<pdfrwt beam="1">  1        4 0.33590094E-02 0.20000327E+02</pdfrwt>
<pdfrwt beam="2">  1       -4 0.70465455E-03 0.20000327E+02</pdfrwt>
<totfact> 0.12647033E+06</totfact>
</mgrwt>
</event>
<event>
 5    1  0.1154861E-006  0.2000017E+02  0.7818608E-02  0.1745325E+00
          4   -1    0    0  501    0  0.00000000000E+00  0.00000000000E+00  0.20619738242E+01  0.25036245828E+01  0.14200000000E+01 0.  1.
         -4   -1    0    0    0  501 -0.00000000000E+00 -0.00000000000E+00 -0.43352191401E+02  0.43375441200E+02  0.14200000000E+01 0. -1.
       1023    2    1    2    0    0  0.00000000000E+00  0.00000000000E+00 -0.41290217577E+02  0.45879065783E+02  0.20000165238E+02 0.  0.
        -11    1    3    3    0    0  0.10499355848E+01 -0.99448101157E+01 -0.20630754640E+02  0.22926614452E+02  0.51100000000E-03 0.  1.
         11    1    3    3    0    0 -0.10499355848E+01  0.99448101157E+01 -0.20659462937E+02  0.22952451330E+02  0.51100000000E-03 0. -1.
<mgrwt>
<rscale>  0 0.20000165E+02</rscale>
<asrwt>0</asrwt>
<pdfrwt beam="1">  1        4 0.35298836E-03 0.20000165E+02</pdfrwt>
<pdfrwt beam="2">  1       -4 0.67053289E-02 0.20000165E+02</pdfrwt>
<totfact> 0.11696917E+06</totfact>
</mgrwt>
</event>
<event>
 4    1  0.1154861E-006  0.2001857E+02  0.7818608E-02  0.1744959E+00
         -4   -1    0    0    0  501 -0.00000000000E+00  0.00000000000E+00  0.17180135628E+02  0.17238719796E+02  0.14200000000E+01 0. -1.
          4   -1    0    0  501    0  0.00000000000E+00 -0.00000000000E+00 -0.56753581602E+01  0.58503068506E+01  0.14200000000E+01 0.  1.
        -11    1    1    2    0    0  0.94621788033E+01 -0.32618569646E+01  0.56195100265E+01  0.11478302652E+02  0.51100000000E-03 0.  1.
         11    1    1    2    0    0 -0.94621788033E+01  0.32618569646E+01  0.58852674412E+01  0.11610723995E+02  0.51100000000E-03 0. -1.
<mgrwt>
<rscale>  0 0.20018573E+02</rscale>
<asrwt>0</asrwt>
<pdfrwt beam="2">  1        4 0.89109610E-03 0.20018573E+02</pdfrwt>
<pdfrwt beam="1">  1       -4 0.26610618E-02 0.20018573E+02</pdfrwt>
<totfact> 0.12809225E+06</totfact>
</mgrwt>
</event>
<event>
 5    1  0.1154861E-006  0.2000006E+02  0.7818608E-02  0.1745327E+00
         -4   -1    0    0    0  501 -0.00000000000E+00  0.00000000000E+00  0.97965271780E+02  0.97975562641E+02  0.14200000000E+01 0. -1.
          4   -1    0    0  501    0  0.00000000000E+00 -0.00000000000E+00 -0.51149693510E+00  0.15093141206E+01  0.14200000000E+01 0.  1.
       1023    2    1    2    0    0  0.00000000000E+00  0.00000000000E+00  0.97453774845E+02  0.99484876762E+02  0.20000061821E+02 0.  0.
        -11    1    3    3    0    0  0.99423364426E+01 -0.10723687517E+01  0.48606138079E+02  0.49624154278E+02  0.51100000000E-03 0. -1.
         11    1    3    3    0    0 -0.99423364426E+01  0.10723687517E+01  0.48847636766E+02  0.49860722484E+02  0.51100000000E-03 0.  1.
<mgrwt>
<rscale>  0 0.20000062E+02</rscale>
<asrwt>0</asrwt>
<pdfrwt beam="2">  1        4 0.15623860E-03 0.20000062E+02</pdfrwt>
<pdfrwt beam="1">  1       -4 0.15149128E-01 0.20000062E+02</pdfrwt>
<totfact> 0.98158808E+05</totfact>
</mgrwt>
</event>
<event>
 5    1  0.1204069E-006  0.2000141E+02  0.7818608E-02  0.1745300E+00
          4   -1    0    0  501    0  0.00000000000E+00  0.00000000000E+00  0.74580056846E+01  0.75919858267E+01  0.14200000000E+01 0. -1.
         -4   -1    0    0    0  501 -0.00000000000E+00 -0.00000000000E+00 -0.13118286689E+02  0.13194917418E+02  0.14200000000E+01 0.  1.
       1023    2    1    2    0    0  0.00000000000E+00  0.00000000000E+00 -0.56602810045E+01  0.20786903244E+02  0.20001414086E+02 0.  0.
        -11    1    3    3    0    0 -0.31166837711E+01 -0.95024591679E+01 -0.28932982301E+01  0.10410649494E+02  0.51100000000E-03 0.  1.
         11    1    3    3    0    0  0.31166837711E+01  0.95024591679E+01 -0.27669827744E+01  0.10376253751E+02  0.51100000000E-03 0. -1.
<mgrwt>
<rscale>  0 0.20001414E+02</rscale>
<asrwt>0</asrwt>
<pdfrwt beam="1">  1        4 0.11635863E-02 0.20001414E+02</pdfrwt>
<pdfrwt beam="2">  1       -4 0.20343988E-02 0.20001414E+02</pdfrwt>
<totfact> 0.12965482E+06</totfact>
</mgrwt>
</event>
<event>
 5    1  0.1154861E-006  0.2000078E+02  0.7818608E-02  0.1745313E+00
         -4   -1    0    0    0  501 -0.00000000000E+00  0.00000000000E+00  0.53240071173E+00  0.15165258052E+01  0.14200000000E+01 0. -1.
          4   -1    0    0  501    0  0.00000000000E+00 -0.00000000000E+00 -0.96627809310E+02  0.96638242596E+02  0.14200000000E+01 0.  1.
       1023    2    1    2    0    0  0.00000000000E+00  0.00000000000E+00 -0.96095408598E+02  0.98154768401E+02  0.20000775141E+02 0.  0.
        -11    1    3    3    0    0  0.83266702706E+01  0.55379296385E+01 -0.48416548914E+02  0.49438490182E+02  0.51100000000E-03 0. -1.
         11    1    3    3    0    0 -0.83266702706E+01 -0.55379296385E+01 -0.47678859685E+02  0.48716278220E+02  0.51100000000E-03 0.  1.
<mgrwt>
<rscale>  0 0.20000775E+02</rscale>
<asrwt>0</asrwt>
<pdfrwt beam="2">  1        4 0.14942314E-01 0.20000775E+02</pdfrwt>
<pdfrwt beam="1">  1       -4 0.15841237E-03 0.20000775E+02</pdfrwt>
<totfact> 0.98533500E+05</totfact>
</mgrwt>
</event>
<event>
 5    1  0.1154861E-006  0.2000085E+02  0.7818608E-02  0.1745311E+00
         -4   -1    0    0    0  501 -0.00000000000E+00  0.00000000000E+00  0.18399040096E+01  0.23241443080E+01  0.14200000000E+01 0. -1.
          4   -1    0    0  501    0  0.00000000000E+00 -0.00000000000E+00 -0.47538177490E+02  0.47559380978E+02  0.14200000000E+01 0.  1.
       1023    2    1    2    0    0  0.00000000000E+00  0.00000000000E+00 -0.45698273480E+02  0.49883525286E+02  0.20000847380E+02 0.  0.
        -11    1    3    3    0    0 -0.94413077815E+01  0.32969232812E+01 -0.22903663708E+02  0.24991714772E+02  0.51100000000E-03 0. -1.
         11    1    3    3    0    0  0.94413077815E+01 -0.32969232812E+01 -0.22794609772E+02  0.24891810514E+02  0.51100000000E-03 0.  1.
<mgrwt>
<rscale>  0 0.20000847E+02</rscale>
<asrwt>0</asrwt>
<pdfrwt beam="2">  1        4 0.73524452E-02 0.20000847E+02</pdfrwt>
<pdfrwt beam="1">  1       -4 0.32194248E-03 0.20000847E+02</pdfrwt>
<totfact> 0.11524133E+06</totfact>
</mgrwt>
</event>
<event>
 5    1  0.1170171E-006  0.2000160E+02  0.7818608E-02  0.1745296E+00
          4   -1    0    0  501    0  0.00000000000E+00  0.00000000000E+00  0.34659843030E+02  0.34688919252E+02  0.14200000000E+01 0. -1.
         -4   -1    0    0    0  501 -0.00000000000E+00 -0.00000000000E+00 -0.26787348055E+01  0.30318344543E+01  0.14200000000E+01 0.  1.
       1023    2    1    2    0    0  0.00000000000E+00  0.00000000000E+00  0.31981108225E+02  0.37720753706E+02  0.20001599358E+02 0.  0.
        -11    1    3    3    0    0 -0.29249407814E+01 -0.95632262642E+01  0.15851729158E+02  0.18742675709E+02  0.51100000000E-03 0.  1.
         11    1    3    3    0    0  0.29249407814E+01  0.95632262642E+01  0.16129379066E+02  0.18978077998E+02  0.51100000000E-03 0. -1.
<mgrwt>
<rscale>  0 0.20001599E+02</rscale>
<asrwt>0</asrwt>
<pdfrwt beam="1">  1        4 0.53616814E-02 0.20001599E+02</pdfrwt>
<pdfrwt beam="2">  1       -4 0.44151122E-03 0.20001599E+02</pdfrwt>
<totfact> 0.12068091E+06</totfact>
</mgrwt>
</event>
<event>
 5    1  0.1154861E-006  0.2000009E+02  0.7818608E-02  0.1745326E+00
          4   -1    0    0  501    0  0.00000000000E+00  0.00000000000E+00  0.14046130320E+02  0.14117725630E+02  0.14200000000E+01 0. -1.
         -4   -1    0    0    0  501 -0.00000000000E+00 -0.00000000000E+00 -0.69578727265E+01  0.71012951550E+01  0.14200000000E+01 0.  1.
       1023    2    1    2    0    0  0.00000000000E+00  0.00000000000E+00  0.70882575930E+01  0.21219020785E+02  0.20000086184E+02 0.  0.
        -11    1    3    3    0    0  0.91703603152E+01 -0.39881420595E+01  0.35533887949E+01  0.10612603714E+02  0.51100000000E-03 0. -1.
         11    1    3    3    0    0 -0.91703603152E+01  0.39881420595E+01  0.35348687981E+01  0.10606417071E+02  0.51100000000E-03 0.  1.
<mgrwt>
<rscale>  0 0.20000086E+02</rscale>
<asrwt>0</asrwt>
<pdfrwt beam="1">  1        4 0.21774829E-02 0.20000086E+02</pdfrwt>
<pdfrwt beam="2">  1       -4 0.10869818E-02 0.20000086E+02</pdfrwt>
<totfact> 0.12941733E+06</totfact>
</mgrwt>
</event>
<event>
 5    1  0.1154861E-006  0.2000057E+02  0.7818608E-02  0.1745317E+00
          4   -1    0    0  501    0  0.00000000000E+00  0.00000000000E+00  0.44340497290E+02  0.44363229142E+02  0.14200000000E+01 0. -1.
         -4   -1    0    0    0  501 -0.00000000000E+00 -0.00000000000E+00 -0.20061889046E+01  0.24578840333E+01  0.14200000000E+01 0.  1.
       1023    2    1    2    0    0  0.00000000000E+00  0.00000000000E+00  0.42334308385E+02  0.46821113175E+02  0.20000574305E+02 0.  0.
        -11    1    3    3    0    0 -0.90389958107E+01 -0.42775684617E+01  0.21006567540E+02  0.23265358739E+02  0.51100000000E-03 0.  1.
         11    1    3    3    0    0  0.90389958107E+01  0.42775684617E+01  0.21327740845E+02  0.23555754436E+02  0.51100000000E-03 0. -1.
<mgrwt>
<rscale>  0 0.20000574E+02</rscale>
<asrwt>0</asrwt>
<pdfrwt beam="1">  1        4 0.68581096E-02 0.20000574E+02</pdfrwt>
<pdfrwt beam="2">  1       -4 0.34513882E-03 0.20000574E+02</pdfrwt>
<totfact> 0.11655351E+06</totfact>
</mgrwt>
</event>
<event>
 5    1  0.1154861E-006  0.2000139E+02  0.7818608E-02  0.1745300E+00
          4   -1    0    0  501    0  0.00000000000E+00  0.00000000000E+00  0.93454444056E+02  0.93465231578E+02  0.14200000000E+01 0.  1.
         -4   -1    0    0    0  501 -0.00000000000E+00 -0.00000000000E+00 -0.58343719731E+00  0.15351869473E+01  0.14200000000E+01 0. -1.
       1023    2    1    2    0    0  0.00000000000E+00  0.00000000000E+00  0.92871006859E+02  0.95000418525E+02  0.20001390075E+02 0.  0.
        -11    1    3    3    0    0  0.58432231069E+01 -0.81154582856E+01  0.45960973726E+02  0.47036316029E+02  0.51100000000E-03 0.  1.
         11    1    3    3    0    0 -0.58432231069E+01  0.81154582856E+01  0.46910033133E+02  0.47964102496E+02  0.51100000000E-03 0. -1.
<mgrwt>
<rscale>  0 0.20001390E+02</rscale>
<asrwt>0</asrwt>
<pdfrwt beam="1">  1        4 0.14451643E-01 0.20001390E+02</pdfrwt>
<pdfrwt beam="2">  1       -4 0.16380095E-03 0.20001390E+02</pdfrwt>
<totfact> 0.99446070E+05</totfact>
</mgrwt>
</event>
<event>
 5    1  0.1154861E-006  0.2000054E+02  0.7818608E-02  0.1745317E+00
         -4   -1    0    0    0  501 -0.00000000000E+00  0.00000000000E+00  0.31703535313E+01  0.34738367137E+01  0.14200000000E+01 0.  1.
          4   -1    0    0  501    0  0.00000000000E+00 -0.00000000000E+00 -0.29781949527E+02  0.29815783029E+02  0.14200000000E+01 0. -1.
       1023    2    1    2    0    0  0.00000000000E+00  0.00000000000E+00 -0.26611595996E+02  0.33289619743E+02  0.20000543522E+02 0.  0.
        -11    1    3    3    0    0  0.93801525574E+01  0.34667221527E+01 -0.13300392020E+02  0.16640488353E+02  0.51100000000E-03 0. -1.
         11    1    3    3    0    0 -0.93801525574E+01 -0.34667221527E+01 -0.13311203976E+02  0.16649131390E+02  0.51100000000E-03 0.  1.
<mgrwt>
<rscale>  0 0.20000544E+02</rscale>
<asrwt>0</asrwt>
<pdfrwt beam="2">  1        4 0.46077856E-02 0.20000544E+02</pdfrwt>
<pdfrwt beam="1">  1       -4 0.51369416E-03 0.20000544E+02</pdfrwt>
<totfact> 0.12286436E+06</totfact>
</mgrwt>
</event>
<event>
 5    1  0.1154861E-006  0.2000124E+02  0.7818608E-02  0.1745303E+00
         -4   -1    0    0    0  501 -0.00000000000E+00  0.00000000000E+00  0.20473440206E+01  0.24915893600E+01  0.14200000000E+01 0. -1.
          4   -1    0    0  501    0  0.00000000000E+00 -0.00000000000E+00 -0.43611768712E+02  0.43634880201E+02  0.14200000000E+01 0.  1.
       1023    2    1    2    0    0  0.00000000000E+00  0.00000000000E+00 -0.41564424691E+02  0.46126469561E+02  0.20001244818E+02 0.  0.
        -11    1    3    3    0    0  0.86807605379E+01  0.49654648892E+01 -0.20855257621E+02  0.23129055661E+02  0.51100000000E-03 0.  1.
         11    1    3    3    0    0 -0.86807605379E+01 -0.49654648892E+01 -0.20709167070E+02  0.22997413900E+02  0.51100000000E-03 0. -1.
<mgrwt>
<rscale>  0 0.20001245E+02</rscale>
<asrwt>0</asrwt>
<pdfrwt beam="2">  1        4 0.67454528E-02 0.20001245E+02</pdfrwt>
<pdfrwt beam="1">  1       -4 0.35092656E-03 0.20001245E+02</pdfrwt>
<totfact> 0.11684815E+06</totfact>
</mgrwt>
</event>
<event>
 5    1  0.1154861E-006  0.2000046E+02  0.7818608E-02  0.1745319E+00
         -4   -1    0    0    0  501 -0.00000000000E+00  0.00000000000E+00  0.26344330056E+00  0.14442307200E+01  0.14200000000E+01 0. -1.
          4   -1    0    0  501    0  0.00000000000E+00 -0.00000000000E+00 -0.11593562120E+03  0.11594431708E+03  0.14200000000E+01 0.  1.
       1023    2    1    2    0    0  0.00000000000E+00  0.00000000000E+00 -0.11567217790E+03  0.11738854780E+03  0.20000460357E+02 0.  0.
        -11    1    3    3    0    0  0.89949236322E+01  0.43696277694E+01 -0.58117898604E+02  0.58971963138E+02  0.51100000000E-03 0.  1.
         11    1    3    3    0    0 -0.89949236322E+01 -0.43696277694E+01 -0.57554279299E+02  0.58416584665E+02  0.51100000000E-03 0. -1.
<mgrwt>
<rscale>  0 0.20000460E+02</rscale>
<asrwt>0</asrwt>
<pdfrwt beam="2">  1        4 0.17927736E-01 0.20000460E+02</pdfrwt>
<pdfrwt beam="1">  1       -4 0.13202855E-03 0.20000460E+02</pdfrwt>
<totfact> 0.93316538E+05</totfact>
</mgrwt>
</event>
<event>
 5    1  0.1154861E-006  0.2000022E+02  0.7818608E-02  0.1745324E+00
         -4   -1    0    0    0  501 -0.00000000000E+00  0.00000000000E+00  0.60185822090E+02  0.60202571212E+02  0.14200000000E+01 0.  1.
          4   -1    0    0  501    0  0.00000000000E+00 -0.00000000000E+00 -0.13380035706E+01  0.19510647234E+01  0.14200000000E+01 0. -1.
       1023    2    1    2    0    0  0.00000000000E+00  0.00000000000E+00  0.58847818519E+02  0.62153635936E+02  0.20000217889E+02 0.  0.
        -11    1    3    3    0    0 -0.57717485524E+01  0.81662549156E+01  0.29539267275E+02  0.31186040340E+02  0.51100000000E-03 0. -1.
         11    1    3    3    0    0  0.57717485524E+01 -0.81662549156E+01  0.29308551244E+02  0.30967595596E+02  0.51100000000E-03 0.  1.
<mgrwt>
<rscale>  0 0.20000218E+02</rscale>
<asrwt>0</asrwt>
<pdfrwt beam="2">  1        4 0.25429365E-03 0.20000218E+02</pdfrwt>
<pdfrwt beam="1">  1       -4 0.93078042E-02 0.20000218E+02</pdfrwt>
<totfact> 0.11036695E+06</totfact>
</mgrwt>
</event>
<event>
 5    1  0.1250025E-006  0.2000112E+02  0.7818608E-02  0.1745306E+00
         -4   -1    0    0    0  501 -0.00000000000E+00  0.00000000000E+00  0.11761246681E+02  0.11846658748E+02  0.14200000000E+01 0. -1.
          4   -1    0    0  501    0  0.00000000000E+00 -0.00000000000E+00 -0.83269557742E+01  0.84471647590E+01  0.14200000000E+01 0.  1.
       1023    2    1    2    0    0  0.00000000000E+00  0.00000000000E+00  0.34342909070E+01  0.20293823507E+02  0.20001122931E+02 0.  0.
        -11    1    3    3    0    0 -0.60923103019E+00  0.99816641682E+01  0.16356749931E+01  0.10133124639E+02  0.51100000000E-03 0. -1.
         11    1    3    3    0    0  0.60923103019E+00 -0.99816641682E+01  0.17986159139E+01  0.10160698868E+02  0.51100000000E-03 0.  1.
<mgrwt>
<rscale>  0 0.20001123E+02</rscale>
<asrwt>0</asrwt>
<pdfrwt beam="2">  1        4 0.12968871E-02 0.20001123E+02</pdfrwt>
<pdfrwt beam="1">  1       -4 0.18252396E-02 0.20001123E+02</pdfrwt>
<totfact> 0.12995066E+06</totfact>
</mgrwt>
</event>
<event>
 5    1  0.1197672E-006  0.2000102E+02  0.7818608E-02  0.1745308E+00
         -4   -1    0    0    0  501 -0.00000000000E+00  0.00000000000E+00  0.14703304163E+02  0.14771714637E+02  0.14200000000E+01 0. -1.
          4   -1    0    0  501    0  0.00000000000E+00 -0.00000000000E+00 -0.66424716417E+01  0.67925569199E+01  0.14200000000E+01 0.  1.
       1023    2    1    2    0    0  0.00000000000E+00  0.00000000000E+00  0.80608325217E+01  0.21564271557E+02  0.20001019645E+02 0.  0.
        -11    1    3    3    0    0  0.96184439088E+01  0.27360808140E+01  0.39248062165E+01  0.10742658216E+02  0.51100000000E-03 0.  1.
         11    1    3    3    0    0 -0.96184439088E+01 -0.27360808140E+01  0.41360263052E+01  0.10821613341E+02  0.51100000000E-03 0. -1.
<mgrwt>
<rscale>  0 0.20001020E+02</rscale>
<asrwt>0</asrwt>
<pdfrwt beam="2">  1        4 0.10387261E-02 0.20001020E+02</pdfrwt>
<pdfrwt beam="1">  1       -4 0.22788541E-02 0.20001020E+02</pdfrwt>
<totfact> 0.12920262E+06</totfact>
</mgrwt>
</event>
<event>
 5    1  0.1154861E-006  0.2000046E+02  0.7818608E-02  0.1745319E+00
         -4   -1    0    0    0  501 -0.00000000000E+00  0.00000000000E+00  0.20796341013E+02  0.20844764319E+02  0.14200000000E+01 0.  1.
          4   -1    0    0  501    0  0.00000000000E+00 -0.00000000000E+00 -0.46485998524E+01  0.48606461081E+01  0.14200000000E+01 0. -1.
       1023    2    1    2    0    0  0.00000000000E+00  0.00000000000E+00  0.16147741161E+02  0.25705410427E+02  0.20000464511E+02 0.  0.
        -11    1    3    3    0    0 -0.66342285347E+00 -0.99781584138E+01  0.81117729325E+01  0.12876514885E+02  0.51100000000E-03 0. -1.
         11    1    3    3    0    0  0.66342285347E+00  0.99781584138E+01  0.80359682282E+01  0.12828895542E+02  0.51100000000E-03 0.  1.
<mgrwt>
<rscale>  0 0.20000465E+02</rscale>
<asrwt>0</asrwt>
<pdfrwt beam="2">  1        4 0.73520534E-03 0.20000465E+02</pdfrwt>
<pdfrwt beam="1">  1       -4 0.32194731E-02 0.20000465E+02</pdfrwt>
<totfact> 0.12685817E+06</totfact>
</mgrwt>
</event>
<event>
 5    1  0.1154861E-006  0.2000348E+02  0.7818608E-02  0.1745259E+00
          4   -1    0    0  501    0  0.00000000000E+00  0.00000000000E+00  0.35515620114E+02  0.35543996287E+02  0.14200000000E+01 0. -1.
         -4   -1    0    0    0  501 -0.00000000000E+00 -0.00000000000E+00 -0.26061972423E+01  0.29679393636E+01  0.14200000000E+01 0.  1.
       1023    2    1    2    0    0  0.00000000000E+00  0.00000000000E+00  0.32909422871E+02  0.38511935651E+02  0.20003476544E+02 0.  0.
        -11    1    3    3    0    0 -0.91155041563E+01  0.41159035689E+01  0.16533857900E+02  0.19323600480E+02  0.51100000000E-03 0. -1.
         11    1    3    3    0    0  0.91155041563E+01 -0.41159035689E+01  0.16375564972E+02  0.19188335170E+02  0.51100000000E-03 0.  1.
<mgrwt>
<rscale>  0 0.20003477E+02</rscale>
<asrwt>0</asrwt>
<pdfrwt beam="1">  1        4 0.54939504E-02 0.20003477E+02</pdfrwt>
<pdfrwt beam="2">  1       -4 0.43096254E-03 0.20003477E+02</pdfrwt>
<totfact> 0.12028207E+06</totfact>
</mgrwt>
</event>
<event>
 5    1  0.1154861E-006  0.2000178E+02  0.7818608E-02  0.1745293E+00
         -4   -1    0    0    0  501 -0.00000000000E+00  0.00000000000E+00  0.10430752264E+03  0.10431718784E+03  0.14200000000E+01 0.  1.
          4   -1    0    0  501    0  0.00000000000E+00 -0.00000000000E+00 -0.41802782022E+00  0.14802524307E+01  0.14200000000E+01 0. -1.
       1023    2    1    2    0    0  0.00000000000E+00  0.00000000000E+00  0.10388949482E+03  0.10579744027E+03  0.20001780780E+02 0.  0.
        -11    1    3    3    0    0  0.99976003659E+01  0.22427140710E+00  0.51286273481E+02  0.52252121091E+02  0.51100000000E-03 0. -1.
         11    1    3    3    0    0 -0.99976003659E+01 -0.22427140710E+00  0.52603221339E+02  0.53545319181E+02  0.51100000000E-03 0.  1.
<mgrwt>
<rscale>  0 0.20001781E+02</rscale>
<asrwt>0</asrwt>
<pdfrwt beam="2">  1        4 0.14676499E-03 0.20001781E+02</pdfrwt>
<pdfrwt beam="1">  1       -4 0.16129770E-01 0.20001781E+02</pdfrwt>
<totfact> 0.96374766E+05</totfact>
</mgrwt>
</event>
<event>
 5    1  0.1154861E-006  0.2000035E+02  0.7818608E-02  0.1745321E+00
         -4   -1    0    0    0  501 -0.00000000000E+00  0.00000000000E+00  0.57281400142E+02  0.57298998265E+02  0.14200000000E+01 0.  1.
          4   -1    0    0  501    0  0.00000000000E+00 -0.00000000000E+00 -0.14361792434E+01  0.20196561141E+01  0.14200000000E+01 0. -1.
       1023    2    1    2    0    0  0.00000000000E+00  0.00000000000E+00  0.55845220898E+02  0.59318654379E+02  0.20000351501E+02 0.  0.
        -11    1    3    3    0    0  0.63868614898E+01 -0.76947772515E+01  0.28052505996E+02  0.29781616637E+02  0.51100000000E-03 0. -1.
         11    1    3    3    0    0 -0.63868614898E+01  0.76947772515E+01  0.27792714903E+02  0.29537037742E+02  0.51100000000E-03 0.  1.
<mgrwt>
<rscale>  0 0.20000352E+02</rscale>
<asrwt>0</asrwt>
<pdfrwt beam="2">  1        4 0.26718718E-03 0.20000352E+02</pdfrwt>
<pdfrwt beam="1">  1       -4 0.88587602E-02 0.20000352E+02</pdfrwt>
<totfact> 0.11144683E+06</totfact>
</mgrwt>
</event>
<event>
 5    1  0.1181773E-006  0.2000171E+02  0.7818608E-02  0.1745294E+00
         -4   -1    0    0    0  501 -0.00000000000E+00  0.00000000000E+00  0.14709591737E+02  0.14777973104E+02  0.14200000000E+01 0. -1.
          4   -1    0    0  501    0  0.00000000000E+00 -0.00000000000E+00 -0.66400573512E+01  0.67901959933E+01  0.14200000000E+01 0.  1.
       1023    2    1    2    0    0  0.00000000000E+00  0.00000000000E+00  0.80695343860E+01  0.21568169098E+02  0.20001713252E+02 0.  0.
        -11    1    3    3    0    0 -0.43387791725E+01  0.90106617275E+01  0.40237958760E+01  0.10779979730E+02  0.51100000000E-03 0. -1.
         11    1    3    3    0    0  0.43387791725E+01 -0.90106617275E+01  0.40457385100E+01  0.10788189367E+02  0.51100000000E-03 0.  1.
<mgrwt>
<rscale>  0 0.20001713E+02</rscale>
<asrwt>0</asrwt>
<pdfrwt beam="2">  1        4 0.10383565E-02 0.20001713E+02</pdfrwt>
<pdfrwt beam="1">  1       -4 0.22798233E-02 0.20001713E+02</pdfrwt>
<totfact> 0.12919121E+06</totfact>
</mgrwt>
</event>
<event>
 5    1  0.1154861E-006  0.2000063E+02  0.7818608E-02  0.1745316E+00
         -4   -1    0    0    0  501 -0.00000000000E+00  0.00000000000E+00  0.63854988874E+01  0.65414827097E+01  0.14200000000E+01 0.  1.
          4   -1    0    0  501    0  0.00000000000E+00 -0.00000000000E+00 -0.15283190190E+02  0.15349016332E+02  0.14200000000E+01 0. -1.
       1023    2    1    2    0    0  0.00000000000E+00  0.00000000000E+00 -0.88976913023E+01  0.21890499042E+02  0.20000625935E+02 0.  0.
        -11    1    3    3    0    0  0.71216572561E+01 -0.70201981678E+01 -0.45268145848E+01  0.10976941055E+02  0.51100000000E-03 0.  1.
         11    1    3    3    0    0 -0.71216572561E+01  0.70201981678E+01 -0.43708767174E+01  0.10913557987E+02  0.51100000000E-03 0. -1.
<mgrwt>
<rscale>  0 0.20000626E+02</rscale>
<asrwt>0</asrwt>
<pdfrwt beam="2">  1        4 0.23683223E-02 0.20000626E+02</pdfrwt>
<pdfrwt beam="1">  1       -4 0.99944675E-03 0.20000626E+02</pdfrwt>
<totfact> 0.12901762E+06</totfact>
</mgrwt>
</event>
<event>
 4    1  0.1154861E-006  0.2001369E+02  0.7818608E-02  0.1745056E+00
          4   -1    0    0  501    0  0.00000000000E+00  0.00000000000E+00  0.11096770602E+01  0.18021606971E+01  0.14200000000E+01 0.  1.
         -4   -1    0    0    0  501 -0.00000000000E+00 -0.00000000000E+00 -0.68077567277E+02  0.68092375243E+02  0.14200000000E+01 0. -1.
        -11    1    1    2    0    0  0.55660608424E+01 -0.83154869804E+01 -0.33807835424E+02  0.35257596250E+02  0.51100000000E-03 0. -1.
         11    1    1    2    0    0 -0.55660608424E+01  0.83154869804E+01 -0.33160054793E+02  0.34636939691E+02  0.51100000000E-03 0.  1.
<mgrwt>
<rscale>  0 0.20013691E+02</rscale>
<asrwt>0</asrwt>
<pdfrwt beam="1">  1        4 0.22512665E-03 0.20013691E+02</pdfrwt>
<pdfrwt beam="2">  1       -4 0.10527876E-01 0.20013691E+02</pdfrwt>
<totfact> 0.10739765E+06</totfact>
</mgrwt>
</event>
<event>
 5    1  0.1154861E-006  0.2000260E+02  0.7818608E-02  0.1745276E+00
          4   -1    0    0  501    0  0.00000000000E+00  0.00000000000E+00  0.12758040498E+01  0.19089462993E+01  0.14200000000E+01 0. -1.
         -4   -1    0    0    0  501 -0.00000000000E+00 -0.00000000000E+00 -0.62172746568E+02  0.62188960562E+02  0.14200000000E+01 0.  1.
       1023    2    1    2    0    0  0.00000000000E+00  0.00000000000E+00 -0.60896942518E+02  0.64097906861E+02  0.20002601230E+02 0.  0.
        -11    1    3    3    0    0  0.75816447958E+01 -0.65226240250E+01 -0.30471523017E+02  0.32070854014E+02  0.51100000000E-03 0. -1.
         11    1    3    3    0    0 -0.75816447958E+01  0.65226240250E+01 -0.30425419502E+02  0.32027052847E+02  0.51100000000E-03 0.  1.
<mgrwt>
<rscale>  0 0.20002601E+02</rscale>
<asrwt>0</asrwt>
<pdfrwt beam="1">  1        4 0.24622807E-03 0.20002601E+02</pdfrwt>
<pdfrwt beam="2">  1       -4 0.96149866E-02 0.20002601E+02</pdfrwt>
<totfact> 0.10961410E+06</totfact>
</mgrwt>
</event>
<event>
 5    1  0.1184764E-006  0.2000147E+02  0.7818608E-02  0.1745299E+00
          4   -1    0    0  501    0  0.00000000000E+00  0.00000000000E+00  0.14056564508E+02  0.14128106942E+02  0.14200000000E+01 0. -1.
         -4   -1    0    0    0  501 -0.00000000000E+00 -0.00000000000E+00 -0.69536183486E+01  0.70971267523E+01  0.14200000000E+01 0.  1.
       1023    2    1    2    0    0  0.00000000000E+00  0.00000000000E+00  0.71029461595E+01  0.21225233695E+02  0.20001467477E+02 0.  0.
        -11    1    3    3    0    0  0.22711180668E+01  0.97393665088E+01  0.35917111721E+01  0.10626082376E+02  0.51100000000E-03 0.  1.
         11    1    3    3    0    0 -0.22711180668E+01 -0.97393665088E+01  0.35112349874E+01  0.10599151318E+02  0.51100000000E-03 0. -1.
<mgrwt>
<rscale>  0 0.20001467E+02</rscale>
<asrwt>0</asrwt>
<pdfrwt beam="1">  1        4 0.21790907E-02 0.20001467E+02</pdfrwt>
<pdfrwt beam="2">  1       -4 0.10863298E-02 0.20001467E+02</pdfrwt>
<totfact> 0.12939545E+06</totfact>
</mgrwt>
</event>
<event>
 5    1  0.1154861E-006  0.2000124E+02  0.7818608E-02  0.1745303E+00
         -4   -1    0    0    0  501 -0.00000000000E+00  0.00000000000E+00  0.50240444667E+00  0.15062570259E+01  0.14200000000E+01 0.  1.
          4   -1    0    0  501    0  0.00000000000E+00 -0.00000000000E+00 -0.98569616672E+02  0.98579844445E+02  0.14200000000E+01 0. -1.
       1023    2    1    2    0    0  0.00000000000E+00  0.00000000000E+00 -0.98067212225E+02  0.10008610147E+03  0.20001239813E+02 0.  0.
        -11    1    3    3    0    0 -0.46797334064E+01 -0.88380683499E+01 -0.49195084084E+02  0.50201271450E+02  0.51100000000E-03 0. -1.
         11    1    3    3    0    0  0.46797334064E+01  0.88380683499E+01 -0.48872128141E+02  0.49884830021E+02  0.51100000000E-03 0.  1.
<mgrwt>
<rscale>  0 0.20001240E+02</rscale>
<asrwt>0</asrwt>
<pdfrwt beam="2">  1        4 0.15242555E-01 0.20001240E+02</pdfrwt>
<pdfrwt beam="1">  1       -4 0.15529925E-03 0.20001240E+02</pdfrwt>
<totfact> 0.97975872E+05</totfact>
</mgrwt>
</event>
<event>
 5    1  0.1154861E-006  0.2000023E+02  0.7818608E-02  0.1745323E+00
         -4   -1    0    0    0  501 -0.00000000000E+00  0.00000000000E+00  0.25557870915E+00  0.14428168548E+01  0.14200000000E+01 0. -1.
          4   -1    0    0  501    0  0.00000000000E+00 -0.00000000000E+00 -0.11656634118E+03  0.11657499001E+03  0.14200000000E+01 0.  1.
       1023    2    1    2    0    0  0.00000000000E+00  0.00000000000E+00 -0.11631076247E+03  0.11801780687E+03  0.20000231771E+02 0.  0.
        -11    1    3    3    0    0  0.98847362379E+01  0.15146767010E+01 -0.58109120484E+02  0.58963311811E+02  0.51100000000E-03 0.  1.
         11    1    3    3    0    0 -0.98847362379E+01 -0.15146767010E+01 -0.58201641986E+02  0.59054495054E+02  0.51100000000E-03 0. -1.
<mgrwt>
<rscale>  0 0.20000232E+02</rscale>
<asrwt>0</asrwt>
<pdfrwt beam="2">  1        4 0.18025262E-01 0.20000232E+02</pdfrwt>
<pdfrwt beam="1">  1       -4 0.13131120E-03 0.20000232E+02</pdfrwt>
<totfact> 0.93158044E+05</totfact>
</mgrwt>
</event>
<event>
 5    1  0.1176472E-006  0.2000076E+02  0.7818608E-02  0.1745313E+00
          4   -1    0    0  501    0  0.00000000000E+00  0.00000000000E+00  0.19210649586E+02  0.19263059402E+02  0.14200000000E+01 0. -1.
         -4   -1    0    0    0  501 -0.00000000000E+00 -0.00000000000E+00 -0.50482535304E+01  0.52441647292E+01  0.14200000000E+01 0.  1.
       1023    2    1    2    0    0  0.00000000000E+00  0.00000000000E+00  0.14162396056E+02  0.24507224131E+02  0.20000764300E+02 0.  0.
        -11    1    3    3    0    0 -0.28659250282E+01  0.95809243385E+01  0.70783412245E+01  0.12251961157E+02  0.51100000000E-03 0. -1.
         11    1    3    3    0    0  0.28659250282E+01 -0.95809243385E+01  0.70840548314E+01  0.12255262974E+02  0.51100000000E-03 0.  1.
<mgrwt>
<rscale>  0 0.20000764E+02</rscale>
<asrwt>0</asrwt>
<pdfrwt beam="1">  1        4 0.29745862E-02 0.20000764E+02</pdfrwt>
<pdfrwt beam="2">  1       -4 0.79575599E-03 0.20000764E+02</pdfrwt>
<totfact> 0.12752202E+06</totfact>
</mgrwt>
</event>
<event>
 5    1  0.1154861E-006  0.2000066E+02  0.7818608E-02  0.1745315E+00
         -4   -1    0    0    0  501 -0.00000000000E+00  0.00000000000E+00  0.91442205618E+02  0.91453230497E+02  0.14200000000E+01 0.  1.
          4   -1    0    0  501    0  0.00000000000E+00 -0.00000000000E+00 -0.61687669424E+00  0.15482043973E+01  0.14200000000E+01 0. -1.
       1023    2    1    2    0    0  0.00000000000E+00  0.00000000000E+00  0.90825328924E+02  0.93001434894E+02  0.20000662945E+02 0.  0.
        -11    1    3    3    0    0 -0.94542707034E+01  0.32593499656E+01  0.45386128030E+02  0.46474801931E+02  0.51100000000E-03 0.  1.
         11    1    3    3    0    0  0.94542707034E+01 -0.32593499656E+01  0.45439200894E+02  0.46526632963E+02  0.51100000000E-03 0. -1.
<mgrwt>
<rscale>  0 0.20000663E+02</rscale>
<asrwt>0</asrwt>
<pdfrwt beam="2">  1        4 0.16739277E-03 0.20000663E+02</pdfrwt>
<pdfrwt beam="1">  1       -4 0.14140520E-01 0.20000663E+02</pdfrwt>
<totfact> 0.10004563E+06</totfact>
</mgrwt>
</event>
<event>
 5    1  0.1154861E-006  0.2000032E+02  0.7818608E-02  0.1745322E+00
          4   -1    0    0  501    0  0.00000000000E+00  0.00000000000E+00  0.80172744516E+02  0.80185318876E+02  0.14200000000E+01 0. -1.
         -4   -1    0    0    0  501 -0.00000000000E+00 -0.00000000000E+00 -0.82634549001E+00  0.16429384860E+01  0.14200000000E+01 0.  1.
       1023    2    1    2    0    0  0.00000000000E+00  0.00000000000E+00  0.79346399026E+02  0.81828257362E+02  0.20000316610E+02 0.  0.
        -11    1    3    3    0    0 -0.66792804469E+01 -0.74424710908E+01  0.39666554483E+02  0.40907685195E+02  0.51100000000E-03 0. -1.
         11    1    3    3    0    0  0.66792804469E+01  0.74424710908E+01  0.39679844543E+02  0.40920572167E+02  0.51100000000E-03 0.  1.
<mgrwt>
<rscale>  0 0.20000317E+02</rscale>
<asrwt>0</asrwt>
<pdfrwt beam="1">  1        4 0.12398051E-01 0.20000317E+02</pdfrwt>
<pdfrwt beam="2">  1       -4 0.19091216E-03 0.20000317E+02</pdfrwt>
<totfact> 0.10351477E+06</totfact>
</mgrwt>
</event>
<event>
 5    1  0.1175822E-006  0.2000074E+02  0.7818608E-02  0.1745313E+00
          4   -1    0    0  501    0  0.00000000000E+00  0.00000000000E+00  0.11765787469E+02  0.11851166810E+02  0.14200000000E+01 0.  1.
         -4   -1    0    0    0  501 -0.00000000000E+00 -0.00000000000E+00 -0.83233884639E+01  0.84436482353E+01  0.14200000000E+01 0. -1.
       1023    2    1    2    0    0  0.00000000000E+00  0.00000000000E+00  0.34423990050E+01  0.20294815045E+02  0.20000735157E+02 0.  0.
        -11    1    3    3    0    0 -0.17190534540E+01  0.98514620804E+01  0.16907322791E+01  0.10142239684E+02  0.51100000000E-03 0. -1.
         11    1    3    3    0    0  0.17190534540E+01 -0.98514620804E+01  0.17516667259E+01  0.10152575362E+02  0.51100000000E-03 0.  1.
<mgrwt>
<rscale>  0 0.20000735E+02</rscale>
<asrwt>0</asrwt>
<pdfrwt beam="1">  1        4 0.18259395E-02 0.20000735E+02</pdfrwt>
<pdfrwt beam="2">  1       -4 0.12963397E-02 0.20000735E+02</pdfrwt>
<totfact> 0.12995521E+06</totfact>
</mgrwt>
</event>
<event>
 5    1  0.1154861E-006  0.2000331E+02  0.7818608E-02  0.1745262E+00
          4   -1    0    0  501    0  0.00000000000E+00  0.00000000000E+00  0.51426479132E+02  0.51446080083E+02  0.14200000000E+01 0. -1.
         -4   -1    0    0    0  501 -0.00000000000E+00 -0.00000000000E+00 -0.16632957976E+01  0.21869963215E+01  0.14200000000E+01 0.  1.
       1023    2    1    2    0    0  0.00000000000E+00  0.00000000000E+00  0.49763183334E+02  0.53633076404E+02  0.20003311452E+02 0.  0.
        -11    1    3    3    0    0 -0.47651900234E+01 -0.87932449766E+01  0.25069732020E+02  0.26991103293E+02  0.51100000000E-03 0. -1.
         11    1    3    3    0    0  0.47651900234E+01  0.87932449766E+01  0.24693451315E+02  0.26641973111E+02  0.51100000000E-03 0.  1.
<mgrwt>
<rscale>  0 0.20003311E+02</rscale>
<asrwt>0</asrwt>
<pdfrwt beam="1">  1        4 0.79535580E-02 0.20003311E+02</pdfrwt>
<pdfrwt beam="2">  1       -4 0.29768410E-03 0.20003311E+02</pdfrwt>
<totfact> 0.11366283E+06</totfact>
</mgrwt>
</event>
<event>
 5    1  0.1154861E-006  0.2000306E+02  0.7818608E-02  0.1745267E+00
         -4   -1    0    0    0  501 -0.00000000000E+00  0.00000000000E+00  0.78062094048E+02  0.78075008339E+02  0.14200000000E+01 0.  1.
          4   -1    0    0  501    0  0.00000000000E+00 -0.00000000000E+00 -0.87093160309E+00  0.16658096702E+01  0.14200000000E+01 0. -1.
       1023    2    1    2    0    0  0.00000000000E+00  0.00000000000E+00  0.77191162444E+02  0.79740818009E+02  0.20003062196E+02 0.  0.
        -11    1    3    3    0    0  0.97496557339E+01  0.22298434823E+01  0.38390942804E+02  0.39672313753E+02  0.51100000000E-03 0. -1.
         11    1    3    3    0    0 -0.97496557339E+01 -0.22298434823E+01  0.38800219640E+02  0.40068504256E+02  0.51100000000E-03 0.  1.
<mgrwt>
<rscale>  0 0.20003062E+02</rscale>
<asrwt>0</asrwt>
<pdfrwt beam="2">  1        4 0.19612742E-03 0.20003062E+02</pdfrwt>
<pdfrwt beam="1">  1       -4 0.12071687E-01 0.20003062E+02</pdfrwt>
<totfact> 0.10416447E+06</totfact>
</mgrwt>
</event>
<event>
 5    1  0.1184108E-006  0.2000091E+02  0.7818608E-02  0.1745310E+00
          4   -1    0    0  501    0  0.00000000000E+00  0.00000000000E+00  0.41100509512E+01  0.43484386648E+01  0.14200000000E+01 0.  1.
         -4   -1    0    0    0  501 -0.00000000000E+00 -0.00000000000E+00 -0.23386497537E+02  0.23429568221E+02  0.14200000000E+01 0. -1.
       1023    2    1    2    0    0  0.00000000000E+00  0.00000000000E+00 -0.19276446586E+02  0.27778006886E+02  0.20000906819E+02 0.  0.
        -11    1    3    3    0    0 -0.60226145342E+01 -0.79835379669E+01 -0.96624321980E+01  0.13905803125E+02  0.51100000000E-03 0. -1.
         11    1    3    3    0    0  0.60226145342E+01  0.79835379669E+01 -0.96140143877E+01  0.13872203762E+02  0.51100000000E-03 0.  1.
<mgrwt>
<rscale>  0 0.20000907E+02</rscale>
<asrwt>0</asrwt>
<pdfrwt beam="1">  1        4 0.65396619E-03 0.20000907E+02</pdfrwt>
<pdfrwt beam="2">  1       -4 0.36195733E-02 0.20000907E+02</pdfrwt>
<totfact> 0.12572306E+06</totfact>
</mgrwt>
</event>
<event>
 5    1  0.1154861E-006  0.2000101E+02  0.7818608E-02  0.1745308E+00
          4   -1    0    0  501    0  0.00000000000E+00  0.00000000000E+00  0.39240676044E+02  0.39266360366E+02  0.14200000000E+01 0. -1.
         -4   -1    0    0    0  501 -0.00000000000E+00 -0.00000000000E+00 -0.23221735307E+01  0.27219276087E+01  0.14200000000E+01 0.  1.
       1023    2    1    2    0    0  0.00000000000E+00  0.00000000000E+00  0.36918502513E+02  0.41988287975E+02  0.20001012455E+02 0.  0.
        -11    1    3    3    0    0  0.63268862167E+01 -0.77446352832E+01  0.18533759685E+02  0.21059656056E+02  0.51100000000E-03 0. -1.
         11    1    3    3    0    0 -0.63268862167E+01  0.77446352832E+01  0.18384742829E+02  0.20928631919E+02  0.51100000000E-03 0.  1.
<mgrwt>
<rscale>  0 0.20001012E+02</rscale>
<asrwt>0</asrwt>
<pdfrwt beam="1">  1        4 0.60697529E-02 0.20001012E+02</pdfrwt>
<pdfrwt beam="2">  1       -4 0.38998351E-03 0.20001012E+02</pdfrwt>
<totfact> 0.11869842E+06</totfact>
</mgrwt>
</event>
<event>
 4    1  0.1154861E-006  0.2004031E+02  0.7818608E-02  0.1744528E+00
         -4   -1    0    0    0  501 -0.00000000000E+00  0.00000000000E+00  0.35211108962E+02  0.35239730339E+02  0.14200000000E+01 0. -1.
          4   -1    0    0  501    0  0.00000000000E+00 -0.00000000000E+00 -0.26429624064E+01  0.30002750344E+01  0.14200000000E+01 0.  1.
        -11    1    1    2    0    0  0.67192479320E+01 -0.74184209832E+01  0.15384610915E+02  0.18353950962E+02  0.51100000000E-03 0. -1.
         11    1    1    2    0    0 -0.67192479320E+01  0.74184209832E+01  0.17183535641E+02  0.19886054411E+02  0.51100000000E-03 0.  1.
<mgrwt>
<rscale>  0 0.20040305E+02</rscale>
<asrwt>0</asrwt>
<pdfrwt beam="2">  1        4 0.43629683E-03 0.20040305E+02</pdfrwt>
<pdfrwt beam="1">  1       -4 0.54467810E-02 0.20040305E+02</pdfrwt>
<totfact> 0.11996300E+06</totfact>
</mgrwt>
</event>
<event>
 4    1  0.1154861E-006  0.2002067E+02  0.7818608E-02  0.1744917E+00
         -4   -1    0    0    0  501 -0.00000000000E+00  0.00000000000E+00  0.42896997756E+02  0.42920494131E+02  0.14200000000E+01 0. -1.
          4   -1    0    0  501    0  0.00000000000E+00 -0.00000000000E+00 -0.20937341334E+01  0.25298463632E+01  0.14200000000E+01 0.  1.
        -11    1    1    2    0    0 -0.95724301879E+01  0.29265887985E+01  0.20633592243E+02  0.22933413850E+02  0.51100000000E-03 0. -1.
         11    1    1    2    0    0  0.95724301879E+01 -0.29265887985E+01  0.20169671380E+02  0.22516926645E+02  0.51100000000E-03 0.  1.
<mgrwt>
<rscale>  0 0.20020668E+02</rscale>
<asrwt>0</asrwt>
<pdfrwt beam="2">  1        4 0.35746748E-03 0.20020668E+02</pdfrwt>
<pdfrwt beam="1">  1       -4 0.66348921E-02 0.20020668E+02</pdfrwt>
<totfact> 0.11691515E+06</totfact>
</mgrwt>
</event>
<event>
 5    1  0.1154861E-006  0.2000072E+02  0.7818608E-02  0.1745314E+00
         -4   -1    0    0    0  501 -0.00000000000E+00  0.00000000000E+00  0.72949053601E+00  0.15964198828E+01  0.14200000000E+01 0. -1.
          4   -1    0    0  501    0  0.00000000000E+00 -0.00000000000E+00 -0.85118951459E+02  0.85130795236E+02  0.14200000000E+01 0.  1.
       1023    2    1    2    0    0  0.00000000000E+00  0.00000000000E+00 -0.84389460923E+02  0.86727215118E+02  0.20000718171E+02 0.  0.
        -11    1    3    3    0    0  0.99008120161E+01 -0.14063723067E+01 -0.41948674878E+02  0.43124184467E+02  0.51100000000E-03 0. -1.
         11    1    3    3    0    0 -0.99008120161E+01  0.14063723067E+01 -0.42440786044E+02  0.43603030651E+02  0.51100000000E-03 0.  1.
<mgrwt>
<rscale>  0 0.20000718E+02</rscale>
<asrwt>0</asrwt>
<pdfrwt beam="2">  1        4 0.13162816E-01 0.20000718E+02</pdfrwt>
<pdfrwt beam="1">  1       -4 0.17982731E-03 0.20000718E+02</pdfrwt>
<totfact> 0.10195810E+06</totfact>
</mgrwt>
</event>
<event>
 5    1  0.1154861E-006  0.2000173E+02  0.7818608E-02  0.1745294E+00
         -4   -1    0    0    0  501 -0.00000000000E+00  0.00000000000E+00  0.91022753055E+02  0.91033828733E+02  0.14200000000E+01 0. -1.
          4   -1    0    0  501    0  0.00000000000E+00 -0.00000000000E+00 -0.62416812875E+00  0.15511240611E+01  0.14200000000E+01 0.  1.
       1023    2    1    2    0    0  0.00000000000E+00  0.00000000000E+00  0.90398584926E+02  0.92584952794E+02  0.20001733103E+02 0.  0.
        -11    1    3    3    0    0 -0.48129615847E+01 -0.87660927338E+01  0.45622281186E+02  0.46705476358E+02  0.51100000000E-03 0.  1.
         11    1    3    3    0    0  0.48129615847E+01  0.87660927338E+01  0.44776303741E+02  0.45879476435E+02  0.51100000000E-03 0. -1.
<mgrwt>
<rscale>  0 0.20001733E+02</rscale>
<asrwt>0</asrwt>
<pdfrwt beam="2">  1        4 0.16818208E-03 0.20001733E+02</pdfrwt>
<pdfrwt beam="1">  1       -4 0.14075662E-01 0.20001733E+02</pdfrwt>
<totfact> 0.10015935E+06</totfact>
</mgrwt>
</event>
<event>
 5    1  0.1154861E-006  0.2000034E+02  0.7818608E-02  0.1745321E+00
         -4   -1    0    0    0  501 -0.00000000000E+00  0.00000000000E+00  0.75967565972E+01  0.77283316956E+01  0.14200000000E+01 0.  1.
          4   -1    0    0  501    0  0.00000000000E+00 -0.00000000000E+00 -0.12880005294E+02  0.12958045238E+02  0.14200000000E+01 0. -1.
       1023    2    1    2    0    0  0.00000000000E+00  0.00000000000E+00 -0.52832486970E+01  0.20686376933E+02  0.20000336843E+02 0.  0.
        -11    1    3    3    0    0 -0.96569465636E+01 -0.25973677505E+01 -0.26201259644E+01  0.10337697833E+02  0.51100000000E-03 0. -1.
         11    1    3    3    0    0  0.96569465636E+01  0.25973677505E+01 -0.26631227326E+01  0.10348679100E+02  0.51100000000E-03 0.  1.
<mgrwt>
<rscale>  0 0.20000337E+02</rscale>
<asrwt>0</asrwt>
<pdfrwt beam="2">  1        4 0.19976635E-02 0.20000337E+02</pdfrwt>
<pdfrwt beam="1">  1       -4 0.11848560E-02 0.20000337E+02</pdfrwt>
<totfact> 0.12972859E+06</totfact>
</mgrwt>
</event>
<event>
 5    1  0.1199561E-006  0.2000163E+02  0.7818608E-02  0.1745296E+00
          4   -1    0    0  501    0  0.00000000000E+00  0.00000000000E+00  0.83249736365E+01  0.84452108350E+01  0.14200000000E+01 0. -1.
         -4   -1    0    0    0  501 -0.00000000000E+00 -0.00000000000E+00 -0.11764638616E+02  0.11850026234E+02  0.14200000000E+01 0.  1.
       1023    2    1    2    0    0  0.00000000000E+00  0.00000000000E+00 -0.34396649792E+01  0.20295237069E+02  0.20001633747E+02 0.  0.
        -11    1    3    3    0    0 -0.11117694398E+01  0.99385140182E+01 -0.18000222813E+01  0.10161209212E+02  0.51100000000E-03 0.  1.
         11    1    3    3    0    0  0.11117694398E+01 -0.99385140182E+01 -0.16396426979E+01  0.10134027857E+02  0.51100000000E-03 0. -1.
<mgrwt>
<rscale>  0 0.20001634E+02</rscale>
<asrwt>0</asrwt>
<pdfrwt beam="1">  1        4 0.12965825E-02 0.20001634E+02</pdfrwt>
<pdfrwt beam="2">  1       -4 0.18257617E-02 0.20001634E+02</pdfrwt>
<totfact> 0.12994305E+06</totfact>
</mgrwt>
</event>
<event>
 5    1  0.1154861E-006  0.2000266E+02  0.7818608E-02  0.1745275E+00
         -4   -1    0    0    0  501 -0.00000000000E+00  0.00000000000E+00  0.16444285102E+02  0.16505481287E+02  0.14200000000E+01 0. -1.
          4   -1    0    0  501    0  0.00000000000E+00 -0.00000000000E+00 -0.59262326233E+01  0.60939833529E+01  0.14200000000E+01 0.  1.
       1023    2    1    2    0    0  0.00000000000E+00  0.00000000000E+00  0.10518052479E+02  0.22599464640E+02  0.20002659175E+02 0.  0.
        -11    1    3    3    0    0 -0.29929709768E+01 -0.95429931353E+01  0.52591370667E+01  0.11299783900E+02  0.51100000000E-03 0. -1.
         11    1    3    3    0    0  0.29929709768E+01  0.95429931353E+01  0.52589154125E+01  0.11299680740E+02  0.51100000000E-03 0.  1.
<mgrwt>
<rscale>  0 0.20002659E+02</rscale>
<asrwt>0</asrwt>
<pdfrwt beam="2">  1        4 0.92933939E-03 0.20002659E+02</pdfrwt>
<pdfrwt beam="1">  1       -4 0.25475013E-02 0.20002659E+02</pdfrwt>
<totfact> 0.12858083E+06</totfact>
</mgrwt>
</event>
<event>
 5    1  0.1154861E-006  0.2000047E+02  0.7818608E-02  0.1745319E+00
         -4   -1    0    0    0  501 -0.00000000000E+00  0.00000000000E+00  0.15388118350E+02  0.15453497544E+02  0.14200000000E+01 0.  1.
          4   -1    0    0  501    0  0.00000000000E+00 -0.00000000000E+00 -0.63409784968E+01  0.64980311092E+01  0.14200000000E+01 0. -1.
       1023    2    1    2    0    0  0.00000000000E+00  0.00000000000E+00  0.90471398532E+01  0.21951528654E+02  0.20000471762E+02 0.  0.
        -11    1    3    3    0    0 -0.33233710491E+01 -0.94316303548E+01  0.45952991553E+01  0.11005326931E+02  0.51100000000E-03 0.  1.
         11    1    3    3    0    0  0.33233710491E+01  0.94316303548E+01  0.44518406979E+01  0.10946201722E+02  0.51100000000E-03 0. -1.
<mgrwt>
<rscale>  0 0.20000472E+02</rscale>
<asrwt>0</asrwt>
<pdfrwt beam="2">  1        4 0.99264530E-03 0.20000472E+02</pdfrwt>
<pdfrwt beam="1">  1       -4 0.23845129E-02 0.20000472E+02</pdfrwt>
<totfact> 0.12898418E+06</totfact>
</mgrwt>
</event>
<event>
 5    1  0.1168538E-006  0.2000077E+02  0.7818608E-02  0.1745313E+00
         -4   -1    0    0    0  501 -0.00000000000E+00  0.00000000000E+00  0.30234014691E+01  0.33402629303E+01  0.14200000000E+01 0. -1.
          4   -1    0    0  501    0  0.00000000000E+00 -0.00000000000E+00 -0.31096983059E+02  0.31129387327E+02  0.14200000000E+01 0.  1.
       1023    2    1    2    0    0  0.00000000000E+00  0.00000000000E+00 -0.28073581590E+02  0.34469650258E+02  0.20000770125E+02 0.  0.
        -11    1    3    3    0    0  0.73229508182E+01  0.68101181841E+01 -0.14150885255E+02  0.17327748617E+02  0.51100000000E-03 0. -1.
         11    1    3    3    0    0 -0.73229508182E+01 -0.68101181841E+01 -0.13922696335E+02  0.17141901641E+02  0.51100000000E-03 0.  1.
<mgrwt>
<rscale>  0 0.20000770E+02</rscale>
<asrwt>0</asrwt>
<pdfrwt beam="2">  1        4 0.48110176E-02 0.20000770E+02</pdfrwt>
<pdfrwt beam="1">  1       -4 0.49200530E-03 0.20000770E+02</pdfrwt>
<totfact> 0.12227244E+06</totfact>
</mgrwt>
</event>
<event>
 5    1  0.1186888E-006  0.2000091E+02  0.7818608E-02  0.1745310E+00
          4   -1    0    0  501    0  0.00000000000E+00  0.00000000000E+00  0.70123613959E+01  0.71546916318E+01  0.14200000000E+01 0. -1.
         -4   -1    0    0    0  501 -0.00000000000E+00 -0.00000000000E+00 -0.13939789590E+02  0.14011928269E+02  0.14200000000E+01 0.  1.
       1023    2    1    2    0    0  0.00000000000E+00  0.00000000000E+00 -0.69274281938E+01  0.21166619900E+02  0.20000913395E+02 0.  0.
        -11    1    3    3    0    0 -0.33352908243E+01  0.94275503730E+01 -0.35474655062E+01  0.10610720178E+02  0.51100000000E-03 0.  1.
         11    1    3    3    0    0  0.33352908243E+01 -0.94275503730E+01 -0.33799626876E+01  0.10555899722E+02  0.51100000000E-03 0. -1.
<mgrwt>
<rscale>  0 0.20000913E+02</rscale>
<asrwt>0</asrwt>
<pdfrwt beam="1">  1        4 0.10953224E-02 0.20000913E+02</pdfrwt>
<pdfrwt beam="2">  1       -4 0.21610806E-02 0.20000913E+02</pdfrwt>
<totfact> 0.12943723E+06</totfact>
</mgrwt>
</event>
<event>
 5    1  0.1154861E-006  0.2000264E+02  0.7818608E-02  0.1745276E+00
         -4   -1    0    0    0  501 -0.00000000000E+00  0.00000000000E+00  0.40016990201E+02  0.40042176573E+02  0.14200000000E+01 0. -1.
          4   -1    0    0  501    0  0.00000000000E+00 -0.00000000000E+00 -0.22697651615E+01  0.26773557643E+01  0.14200000000E+01 0.  1.
       1023    2    1    2    0    0  0.00000000000E+00  0.00000000000E+00  0.37747225039E+02  0.42719532338E+02  0.20002635951E+02 0.  0.
        -11    1    3    3    0    0  0.46209666151E+01  0.88687253429E+01  0.18581253737E+02  0.21101436263E+02  0.51100000000E-03 0. -1.
         11    1    3    3    0    0 -0.46209666151E+01 -0.88687253429E+01  0.19165971302E+02  0.21618096074E+02  0.51100000000E-03 0.  1.
<mgrwt>
<rscale>  0 0.20002636E+02</rscale>
<asrwt>0</asrwt>
<pdfrwt beam="2">  1        4 0.38248518E-03 0.20002636E+02</pdfrwt>
<pdfrwt beam="1">  1       -4 0.61897505E-02 0.20002636E+02</pdfrwt>
<totfact> 0.11834694E+06</totfact>
</mgrwt>
</event>
<event>
 5    1  0.1154861E-006  0.2000134E+02  0.7818608E-02  0.1745301E+00
         -4   -1    0    0    0  501 -0.00000000000E+00  0.00000000000E+00  0.32510372573E+02  0.32541369437E+02  0.14200000000E+01 0.  1.
          4   -1    0    0  501    0  0.00000000000E+00 -0.00000000000E+00 -0.28781984004E+01  0.32094276798E+01  0.14200000000E+01 0. -1.
       1023    2    1    2    0    0  0.00000000000E+00  0.00000000000E+00  0.29632174173E+02  0.35750797117E+02  0.20001343662E+02 0.  0.
        -11    1    3    3    0    0 -0.91156202305E+01 -0.41131631171E+01  0.14765727598E+02  0.17833657919E+02  0.51100000000E-03 0. -1.
         11    1    3    3    0    0  0.91156202305E+01  0.41131631171E+01  0.14866446575E+02  0.17917139198E+02  0.51100000000E-03 0.  1.
<mgrwt>
<rscale>  0 0.20001344E+02</rscale>
<asrwt>0</asrwt>
<pdfrwt beam="2">  1        4 0.47066332E-03 0.20001344E+02</pdfrwt>
<pdfrwt beam="1">  1       -4 0.50294591E-02 0.20001344E+02</pdfrwt>
<totfact> 0.12163505E+06</totfact>
</mgrwt>
</event>
<event>
 5    1  0.1154861E-006  0.2000060E+02  0.7818608E-02  0.1745316E+00
         -4   -1    0    0    0  501 -0.00000000000E+00  0.00000000000E+00  0.22202227302E+01  0.26354864773E+01  0.14200000000E+01 0. -1.
          4   -1    0    0  501    0  0.00000000000E+00 -0.00000000000E+00 -0.40762431807E+02  0.40787157867E+02  0.14200000000E+01 0.  1.
       1023    2    1    2    0    0  0.00000000000E+00  0.00000000000E+00 -0.38542209077E+02  0.43422644344E+02  0.20000604023E+02 0.  0.
        -11    1    3    3    0    0 -0.25155643364E+01  0.96786598380E+01 -0.19355744665E+02  0.21786449274E+02  0.51100000000E-03 0. -1.
         11    1    3    3    0    0  0.25155643364E+01 -0.96786598380E+01 -0.19186464412E+02  0.21636195070E+02  0.51100000000E-03 0.  1.
<mgrwt>
<rscale>  0 0.20000604E+02</rscale>
<asrwt>0</asrwt>
<pdfrwt beam="2">  1        4 0.63049882E-02 0.20000604E+02</pdfrwt>
<pdfrwt beam="1">  1       -4 0.37541813E-03 0.20000604E+02</pdfrwt>
<totfact> 0.11805407E+06</totfact>
</mgrwt>
</event>
<event>
 4    1  0.1154861E-006  0.2002334E+02  0.7818608E-02  0.1744864E+00
         -4   -1    0    0    0  501 -0.00000000000E+00  0.00000000000E+00  0.22030016911E+02  0.22075734305E+02  0.14200000000E+01 0. -1.
          4   -1    0    0  501    0  0.00000000000E+00 -0.00000000000E+00 -0.43872726575E+01  0.46113513607E+01  0.14200000000E+01 0.  1.
        -11    1    1    2    0    0 -0.46726599794E+01  0.88543589901E+01  0.88349941549E+01  0.13352548311E+02  0.51100000000E-03 0. -1.
         11    1    1    2    0    0  0.46726599794E+01 -0.88543589901E+01  0.88077500984E+01  0.13334537355E+02  0.51100000000E-03 0.  1.
<mgrwt>
<rscale>  0 0.20023339E+02</rscale>
<asrwt>0</asrwt>
<pdfrwt beam="2">  1        4 0.69571857E-03 0.20023339E+02</pdfrwt>
<pdfrwt beam="1">  1       -4 0.34099869E-02 0.20023339E+02</pdfrwt>
<totfact> 0.12602575E+06</totfact>
</mgrwt>
</event>
<event>
 5    1  0.1154861E-006  0.2000391E+02  0.7818608E-02  0.1745250E+00
         -4   -1    0    0    0  501 -0.00000000000E+00  0.00000000000E+00  0.14631429243E+02  0.14700174206E+02  0.14200000000E+01 0. -1.
          4   -1    0    0  501    0  0.00000000000E+00 -0.00000000000E+00 -0.66776752897E+01  0.68269866907E+01  0.14200000000E+01 0.  1.
       1023    2    1    2    0    0  0.00000000000E+00  0.00000000000E+00  0.79537539529E+01  0.21527160897E+02  0.20003910976E+02 0.  0.
        -11    1    3    3    0    0 -0.62071169903E+01  0.78428657890E+01  0.39592529511E+01  0.10757068806E+02  0.51100000000E-03 0. -1.
         11    1    3    3    0    0  0.62071169903E+01 -0.78428657890E+01  0.39945010018E+01  0.10770092090E+02  0.51100000000E-03 0.  1.
<mgrwt>
<rscale>  0 0.20003911E+02</rscale>
<asrwt>0</asrwt>
<pdfrwt beam="2">  1        4 0.10441082E-02 0.20003911E+02</pdfrwt>
<pdfrwt beam="1">  1       -4 0.22677627E-02 0.20003911E+02</pdfrwt>
<totfact> 0.12918622E+06</totfact>
</mgrwt>
</event>
<event>
 5    1  0.1154861E-006  0.2000059E+02  0.7818608E-02  0.1745316E+00
          4   -1    0    0  501    0  0.00000000000E+00  0.00000000000E+00  0.67211558655E+02  0.67226557377E+02  0.14200000000E+01 0.  1.
         -4   -1    0    0    0  501 -0.00000000000E+00 -0.00000000000E+00 -0.11304337893E+01  0.18150153035E+01  0.14200000000E+01 0. -1.
       1023    2    1    2    0    0  0.00000000000E+00  0.00000000000E+00  0.66081124866E+02  0.69041572681E+02  0.20000592360E+02 0.  0.
        -11    1    3    3    0    0 -0.99423106151E+01  0.10753344035E+01  0.33019009679E+02  0.34500157752E+02  0.51100000000E-03 0. -1.
         11    1    3    3    0    0  0.99423106151E+01 -0.10753344035E+01  0.33062115186E+02  0.34541414929E+02  0.51100000000E-03 0.  1.
<mgrwt>
<rscale>  0 0.20000592E+02</rscale>
<asrwt>0</asrwt>
<pdfrwt beam="1">  1        4 0.10394053E-01 0.20000592E+02</pdfrwt>
<pdfrwt beam="2">  1       -4 0.22772676E-03 0.20000592E+02</pdfrwt>
<totfact> 0.10784126E+06</totfact>
</mgrwt>
</event>
<event>
 5    1  0.1154861E-006  0.2000131E+02  0.7818608E-02  0.1745302E+00
         -4   -1    0    0    0  501 -0.00000000000E+00  0.00000000000E+00  0.97002674669E+02  0.97013067640E+02  0.14200000000E+01 0.  1.
          4   -1    0    0  501    0  0.00000000000E+00 -0.00000000000E+00 -0.52661570426E+00  0.15145045725E+01  0.14200000000E+01 0. -1.
       1023    2    1    2    0    0  0.00000000000E+00  0.00000000000E+00  0.96476058965E+02  0.98527572213E+02  0.20001313275E+02 0.  0.
        -11    1    3    3    0    0  0.77526187523E+01 -0.63174077734E+01  0.48335861752E+02  0.49359581340E+02  0.51100000000E-03 0. -1.
         11    1    3    3    0    0 -0.77526187523E+01  0.63174077734E+01  0.48140197213E+02  0.49167990873E+02  0.51100000000E-03 0.  1.
<mgrwt>
<rscale>  0 0.20001313E+02</rscale>
<asrwt>0</asrwt>
<pdfrwt beam="2">  1        4 0.15780872E-03 0.20001313E+02</pdfrwt>
<pdfrwt beam="1">  1       -4 0.15000279E-01 0.20001313E+02</pdfrwt>
<totfact> 0.98420894E+05</totfact>
</mgrwt>
</event>
<event>
 5    1  0.1154861E-006  0.2000068E+02  0.7818608E-02  0.1745315E+00
          4   -1    0    0  501    0  0.00000000000E+00  0.00000000000E+00  0.45849738072E+01  0.47998317484E+01  0.14200000000E+01 0. -1.
         -4   -1    0    0    0  501 -0.00000000000E+00 -0.00000000000E+00 -0.21073195353E+02  0.21120983935E+02  0.14200000000E+01 0.  1.
       1023    2    1    2    0    0  0.00000000000E+00  0.00000000000E+00 -0.16488221546E+02  0.25920815683E+02  0.20000680887E+02 0.  0.
        -11    1    3    3    0    0 -0.86727715760E+01  0.49787048542E+01 -0.83068012874E+01  0.13000285255E+02  0.51100000000E-03 0. -1.
         11    1    3    3    0    0  0.86727715760E+01 -0.49787048542E+01 -0.81814202582E+01  0.12920530428E+02  0.51100000000E-03 0.  1.
<mgrwt>
<rscale>  0 0.20000681E+02</rscale>
<asrwt>0</asrwt>
<pdfrwt beam="1">  1        4 0.72558418E-03 0.20000681E+02</pdfrwt>
<pdfrwt beam="2">  1       -4 0.32622336E-02 0.20000681E+02</pdfrwt>
<totfact> 0.12673651E+06</totfact>
</mgrwt>
</event>
<event>
 5    1  0.1179934E-006  0.2000138E+02  0.7818608E-02  0.1745301E+00
          4   -1    0    0  501    0  0.00000000000E+00  0.00000000000E+00  0.17536690551E+02  0.17594087515E+02  0.14200000000E+01 0.  1.
         -4   -1    0    0    0  501 -0.00000000000E+00 -0.00000000000E+00 -0.55468190355E+01  0.57256965876E+01  0.14200000000E+01 0. -1.
       1023    2    1    2    0    0  0.00000000000E+00  0.00000000000E+00  0.11989871516E+02  0.23319784103E+02  0.20001382743E+02 0.  0.
        -11    1    3    3    0    0  0.59279472533E+01 -0.80542192040E+01  0.60568719881E+01  0.11691736576E+02  0.51100000000E-03 0.  1.
         11    1    3    3    0    0 -0.59279472533E+01  0.80542192040E+01  0.59329995274E+01  0.11628047526E+02  0.51100000000E-03 0. -1.
<mgrwt>
<rscale>  0 0.20001383E+02</rscale>
<asrwt>0</asrwt>
<pdfrwt beam="1">  1        4 0.27161273E-02 0.20001383E+02</pdfrwt>
<pdfrwt beam="2">  1       -4 0.87153174E-03 0.20001383E+02</pdfrwt>
<totfact> 0.12818512E+06</totfact>
</mgrwt>
</event>
<event>
 5    1  0.1154861E-006  0.2000016E+02  0.7818608E-02  0.1745325E+00
         -4   -1    0    0    0  501 -0.00000000000E+00  0.00000000000E+00  0.54238192544E+01  0.56066224506E+01  0.14200000000E+01 0.  1.
          4   -1    0    0  501    0  0.00000000000E+00 -0.00000000000E+00 -0.17920580169E+02  0.17976751475E+02  0.14200000000E+01 0. -1.
       1023    2    1    2    0    0  0.00000000000E+00  0.00000000000E+00 -0.12496760915E+02  0.23583373926E+02  0.20000162308E+02 0.  0.
        -11    1    3    3    0    0 -0.92029706406E+01 -0.39123946526E+01 -0.62353401351E+01  0.11784776934E+02  0.51100000000E-03 0.  1.
         11    1    3    3    0    0  0.92029706406E+01  0.39123946526E+01 -0.62614207799E+01  0.11798596992E+02  0.51100000000E-03 0. -1.
<mgrwt>
<rscale>  0 0.20000162E+02</rscale>
<asrwt>0</asrwt>
<pdfrwt beam="2">  1        4 0.27753950E-02 0.20000162E+02</pdfrwt>
<pdfrwt beam="1">  1       -4 0.85281639E-03 0.20000162E+02</pdfrwt>
<totfact> 0.12805120E+06</totfact>
</mgrwt>
</event>
<event>
 5    1  0.1154861E-006  0.2000007E+02  0.7818608E-02  0.1745327E+00
          4   -1    0    0  501    0  0.00000000000E+00  0.00000000000E+00  0.55044101852E+01  0.56846223698E+01  0.14200000000E+01 0. -1.
         -4   -1    0    0    0  501 -0.00000000000E+00 -0.00000000000E+00 -0.17665617279E+02  0.17722596701E+02  0.14200000000E+01 0.  1.
       1023    2    1    2    0    0  0.00000000000E+00  0.00000000000E+00 -0.12161207093E+02  0.23407219071E+02  0.20000073667E+02 0.  0.
        -11    1    3    3    0    0 -0.21574927810E-01 -0.99999881029E+01 -0.61070046405E+01  0.11717326209E+02  0.51100000000E-03 0. -1.
         11    1    3    3    0    0  0.21574927810E-01  0.99999881029E+01 -0.60542024529E+01  0.11689892863E+02  0.51100000000E-03 0.  1.
<mgrwt>
<rscale>  0 0.20000074E+02</rscale>
<asrwt>0</asrwt>
<pdfrwt beam="1">  1        4 0.86507785E-03 0.20000074E+02</pdfrwt>
<pdfrwt beam="2">  1       -4 0.27360328E-02 0.20000074E+02</pdfrwt>
<totfact> 0.12815244E+06</totfact>
</mgrwt>
</event>
<event>
 5    1  0.1154861E-006  0.2000016E+02  0.7818608E-02  0.1745325E+00
         -4   -1    0    0    0  501 -0.00000000000E+00  0.00000000000E+00  0.31726050110E+01  0.34758916202E+01  0.14200000000E+01 0.  1.
          4   -1    0    0  501    0  0.00000000000E+00 -0.00000000000E+00 -0.29761496398E+02  0.29795353125E+02  0.14200000000E+01 0. -1.
       1023    2    1    2    0    0  0.00000000000E+00  0.00000000000E+00 -0.26588891387E+02  0.33271244746E+02  0.20000164542E+02 0.  0.
        -11    1    3    3    0    0 -0.99073084794E+01  0.13585489427E+01 -0.13352756152E+02  0.16682221484E+02  0.51100000000E-03 0. -1.
         11    1    3    3    0    0  0.99073084794E+01 -0.13585489427E+01 -0.13236135235E+02  0.16589023261E+02  0.51100000000E-03 0.  1.
<mgrwt>
<rscale>  0 0.20000165E+02</rscale>
<asrwt>0</asrwt>
<pdfrwt beam="2">  1        4 0.46046257E-02 0.20000165E+02</pdfrwt>
<pdfrwt beam="1">  1       -4 0.51402720E-03 0.20000165E+02</pdfrwt>
<totfact> 0.12287832E+06</totfact>
</mgrwt>
</event>
<event>
 5    1  0.1154861E-006  0.2000100E+02  0.7818608E-02  0.1745308E+00
         -4   -1    0    0    0  501 -0.00000000000E+00  0.00000000000E+00  0.70938976588E+02  0.70953187380E+02  0.14200000000E+01 0.  1.
          4   -1    0    0  501    0  0.00000000000E+00 -0.00000000000E+00 -0.10341603318E+01  0.17566694601E+01  0.14200000000E+01 0. -1.
       1023    2    1    2    0    0  0.00000000000E+00  0.00000000000E+00  0.69904816256E+02  0.72709856840E+02  0.20000998622E+02 0.  0.
        -11    1    3    3    0    0  0.78876382478E+01  0.61470934643E+01  0.35285411753E+02  0.36675085249E+02  0.51100000000E-03 0.  1.
         11    1    3    3    0    0 -0.78876382478E+01 -0.61470934643E+01  0.34619404503E+02  0.36034771591E+02  0.51100000000E-03 0. -1.
<mgrwt>
<rscale>  0 0.20000999E+02</rscale>
<asrwt>0</asrwt>
<pdfrwt beam="2">  1        4 0.21577230E-03 0.20000999E+02</pdfrwt>
<pdfrwt beam="1">  1       -4 0.10970362E-01 0.20000999E+02</pdfrwt>
<totfact> 0.10655094E+06</totfact>
</mgrwt>
</event>
<event>
 5    1  0.1154861E-006  0.2000019E+02  0.7818608E-02  0.1745324E+00
         -4   -1    0    0    0  501 -0.00000000000E+00  0.00000000000E+00  0.17243211180E+01  0.22337599061E+01  0.14200000000E+01 0.  1.
          4   -1    0    0  501    0  0.00000000000E+00 -0.00000000000E+00 -0.50009705679E+02  0.50029861704E+02  0.14200000000E+01 0. -1.
       1023    2    1    2    0    0  0.00000000000E+00  0.00000000000E+00 -0.48285384561E+02  0.52263621610E+02  0.20000194538E+02 0.  0.
        -11    1    3    3    0    0 -0.89338718620E+01  0.44930822354E+01 -0.24167580657E+02  0.26154804711E+02  0.51100000000E-03 0. -1.
         11    1    3    3    0    0  0.89338718620E+01 -0.44930822354E+01 -0.24117803904E+02  0.26108816898E+02  0.51100000000E-03 0.  1.
<mgrwt>
<rscale>  0 0.20000195E+02</rscale>
<asrwt>0</asrwt>
<pdfrwt beam="2">  1        4 0.77345380E-02 0.20000195E+02</pdfrwt>
<pdfrwt beam="1">  1       -4 0.30601827E-03 0.20000195E+02</pdfrwt>
<totfact> 0.11425834E+06</totfact>
</mgrwt>
</event>
<event>
 4    1  0.1154861E-006  0.2045060E+02  0.7818608E-02  0.1736513E+00
         -4   -1    0    0    0  501 -0.00000000000E+00  0.00000000000E+00  0.29106966207E+01  0.32386038377E+01  0.14200000000E+01 0. -1.
          4   -1    0    0  501    0  0.00000000000E+00 -0.00000000000E+00 -0.33662397147E+02  0.33692334168E+02  0.14200000000E+01 0.  1.
        -11    1    1    2    0    0 -0.37602015803E+01 -0.94314078865E+01 -0.17562510698E+02  0.20286260201E+02  0.51100000000E-03 0.  1.
         11    1    1    2    0    0  0.37602015803E+01  0.94314078865E+01 -0.13189189828E+02  0.16644677805E+02  0.51100000000E-03 0. -1.
<mgrwt>
<rscale>  0 0.20450601E+02</rscale>
<asrwt>0</asrwt>
<pdfrwt beam="2">  1        4 0.52063565E-02 0.20450601E+02</pdfrwt>
<pdfrwt beam="1">  1       -4 0.47532598E-03 0.20450601E+02</pdfrwt>
<totfact> 0.11570601E+06</totfact>
</mgrwt>
</event>
<event>
 5    1  0.1156346E-006  0.2000232E+02  0.7818608E-02  0.1745282E+00
         -4   -1    0    0    0  501 -0.00000000000E+00  0.00000000000E+00  0.98809914209E+01  0.99825042679E+01  0.14200000000E+01 0.  1.
          4   -1    0    0  501    0  0.00000000000E+00 -0.00000000000E+00 -0.99187203707E+01  0.10019850987E+02  0.14200000000E+01 0. -1.
       1023    2    1    2    0    0  0.00000000000E+00  0.00000000000E+00 -0.37728949836E-01  0.20002355254E+02  0.20002319672E+02 0.  0.
        -11    1    3    3    0    0 -0.86464491634E+01  0.50260751410E+01  0.72763996863E-02  0.10001128320E+02  0.51100000000E-03 0. -1.
         11    1    3    3    0    0  0.86464491634E+01 -0.50260751410E+01 -0.45005349522E-01  0.10001226935E+02  0.51100000000E-03 0.  1.
<mgrwt>
<rscale>  0 0.20002320E+02</rscale>
<asrwt>0</asrwt>
<pdfrwt beam="2">  1        4 0.15415449E-02 0.20002320E+02</pdfrwt>
<pdfrwt beam="1">  1       -4 0.15357405E-02 0.20002320E+02</pdfrwt>
<totfact> 0.13010823E+06</totfact>
</mgrwt>
</event>
<event>
 5    1  0.1154861E-006  0.2000969E+02  0.7818608E-02  0.1745135E+00
         -4   -1    0    0    0  501 -0.00000000000E+00  0.00000000000E+00  0.76209368761E+01  0.77521015776E+01  0.14200000000E+01 0.  1.
          4   -1    0    0  501    0  0.00000000000E+00 -0.00000000000E+00 -0.12851795557E+02  0.12930005763E+02  0.14200000000E+01 0. -1.
       1023    2    1    2    0    0  0.00000000000E+00  0.00000000000E+00 -0.52308586804E+01  0.20682107341E+02  0.20009689690E+02 0.  0.
        -11    1    3    3    0    0  0.23978011045E+01 -0.97123513413E+01 -0.27529469366E+01  0.10375834222E+02  0.51100000000E-03 0.  1.
         11    1    3    3    0    0 -0.23978011045E+01  0.97123513413E+01 -0.24779117438E+01  0.10306273118E+02  0.51100000000E-03 0. -1.
<mgrwt>
<rscale>  0 0.20009690E+02</rscale>
<asrwt>0</asrwt>
<pdfrwt beam="2">  1        4 0.19933051E-02 0.20009690E+02</pdfrwt>
<pdfrwt beam="1">  1       -4 0.11885576E-02 0.20009690E+02</pdfrwt>
<totfact> 0.12960738E+06</totfact>
</mgrwt>
</event>
<event>
 5    1  0.1154861E-006  0.2000289E+02  0.7818608E-02  0.1745271E+00
          4   -1    0    0  501    0  0.00000000000E+00  0.00000000000E+00  0.59581424678E+02  0.59598343657E+02  0.14200000000E+01 0. -1.
         -4   -1    0    0    0  501 -0.00000000000E+00 -0.00000000000E+00 -0.13582884139E+01  0.19650311487E+01  0.14200000000E+01 0.  1.
       1023    2    1    2    0    0  0.00000000000E+00  0.00000000000E+00  0.58223136264E+02  0.61563374806E+02  0.20002887818E+02 0.  0.
        -11    1    3    3    0    0 -0.77317027515E+01 -0.63436473010E+01  0.28839899289E+02  0.30524758472E+02  0.51100000000E-03 0. -1.
         11    1    3    3    0    0  0.77317027515E+01  0.63436473010E+01  0.29383236975E+02  0.31038616334E+02  0.51100000000E-03 0.  1.
<mgrwt>
<rscale>  0 0.20002888E+02</rscale>
<asrwt>0</asrwt>
<pdfrwt beam="1">  1        4 0.92143479E-02 0.20002888E+02</pdfrwt>
<pdfrwt beam="2">  1       -4 0.25694140E-03 0.20002888E+02</pdfrwt>
<totfact> 0.11056026E+06</totfact>
</mgrwt>
</event>
<event>
 5    1  0.1154861E-006  0.2000030E+02  0.7818608E-02  0.1745322E+00
         -4   -1    0    0    0  501 -0.00000000000E+00  0.00000000000E+00  0.12461305843E+02  0.12541951336E+02  0.14200000000E+01 0. -1.
          4   -1    0    0  501    0  0.00000000000E+00 -0.00000000000E+00 -0.78546857848E+01  0.79820103219E+01  0.14200000000E+01 0.  1.
       1023    2    1    2    0    0  0.00000000000E+00  0.00000000000E+00  0.46066200580E+01  0.20523961658E+02  0.20000301342E+02 0.  0.
        -11    1    3    3    0    0 -0.81798199203E+01  0.57525864055E+01  0.23404359935E+01  0.10270313782E+02  0.51100000000E-03 0. -1.
         11    1    3    3    0    0  0.81798199203E+01 -0.57525864055E+01  0.22661840646E+01  0.10253647876E+02  0.51100000000E-03 0.  1.
<mgrwt>
<rscale>  0 0.20000301E+02</rscale>
<asrwt>0</asrwt>
<pdfrwt beam="2">  1        4 0.12244109E-02 0.20000301E+02</pdfrwt>
<pdfrwt beam="1">  1       -4 0.19331217E-02 0.20000301E+02</pdfrwt>
<totfact> 0.12982504E+06</totfact>
</mgrwt>
</event>
<event>
 5    1  0.1157088E-006  0.2000304E+02  0.7818608E-02  0.1745268E+00
          4   -1    0    0  501    0  0.00000000000E+00  0.00000000000E+00  0.30290218440E+02  0.30323484845E+02  0.14200000000E+01 0.  1.
         -4   -1    0    0    0  501 -0.00000000000E+00 -0.00000000000E+00 -0.31129453816E+01  0.34215243604E+01  0.14200000000E+01 0. -1.
       1023    2    1    2    0    0  0.00000000000E+00  0.00000000000E+00  0.27177273059E+02  0.33745009206E+02  0.20003036654E+02 0.  0.
        -11    1    3    3    0    0 -0.36047701919E+01 -0.93289592334E+01  0.13452416872E+02  0.16762797155E+02  0.51100000000E-03 0. -1.
         11    1    3    3    0    0  0.36047701919E+01  0.93289592334E+01  0.13724856187E+02  0.16982212050E+02  0.51100000000E-03 0.  1.
<mgrwt>
<rscale>  0 0.20003037E+02</rscale>
<asrwt>0</asrwt>
<pdfrwt beam="1">  1        4 0.46863293E-02 0.20003037E+02</pdfrwt>
<pdfrwt beam="2">  1       -4 0.50521049E-03 0.20003037E+02</pdfrwt>
<totfact> 0.12260502E+06</totfact>
</mgrwt>
</event>
<event>
 5    1  0.1198923E-006  0.2000086E+02  0.7818608E-02  0.1745311E+00
         -4   -1    0    0    0  501 -0.00000000000E+00  0.00000000000E+00  0.13467598547E+02  0.13542252790E+02  0.14200000000E+01 0.  1.
          4   -1    0    0  501    0  0.00000000000E+00 -0.00000000000E+00 -0.72617326110E+01  0.73992675661E+01  0.14200000000E+01 0. -1.
       1023    2    1    2    0    0  0.00000000000E+00  0.00000000000E+00  0.62058659362E+01  0.20941520356E+02  0.20000862552E+02 0.  0.
        -11    1    3    3    0    0 -0.44631784964E+01  0.89492176223E+01  0.30893983678E+01  0.10466749299E+02  0.51100000000E-03 0. -1.
         11    1    3    3    0    0  0.44631784964E+01 -0.89492176223E+01  0.31164675684E+01  0.10474771058E+02  0.51100000000E-03 0.  1.
<mgrwt>
<rscale>  0 0.20000863E+02</rscale>
<asrwt>0</asrwt>
<pdfrwt beam="2">  1        4 0.11335119E-02 0.20000863E+02</pdfrwt>
<pdfrwt beam="1">  1       -4 0.20882605E-02 0.20000863E+02</pdfrwt>
<totfact> 0.12957063E+06</totfact>
</mgrwt>
</event>
<event>
 5    1  0.1154861E-006  0.2000054E+02  0.7818608E-02  0.1745317E+00
          4   -1    0    0  501    0  0.00000000000E+00  0.00000000000E+00  0.25296681523E+01  0.29009689693E+01  0.14200000000E+01 0.  1.
         -4   -1    0    0    0  501 -0.00000000000E+00 -0.00000000000E+00 -0.36444022604E+02  0.36471676457E+02  0.14200000000E+01 0. -1.
       1023    2    1    2    0    0  0.00000000000E+00  0.00000000000E+00 -0.33914354452E+02  0.39372645426E+02  0.20000544242E+02 0.  0.
        -11    1    3    3    0    0  0.97077547632E+01 -0.24010101813E+01 -0.16975831951E+02  0.19702391304E+02  0.51100000000E-03 0.  1.
         11    1    3    3    0    0 -0.97077547632E+01  0.24010101813E+01 -0.16938522501E+02  0.19670254122E+02  0.51100000000E-03 0. -1.
<mgrwt>
<rscale>  0 0.20000544E+02</rscale>
<asrwt>0</asrwt>
<pdfrwt beam="1">  1        4 0.41986856E-03 0.20000544E+02</pdfrwt>
<pdfrwt beam="2">  1       -4 0.56374612E-02 0.20000544E+02</pdfrwt>
<totfact> 0.11991249E+06</totfact>
</mgrwt>
</event>
<event>
 5    1  0.1154861E-006  0.2000866E+02  0.7818608E-02  0.1745156E+00
          4   -1    0    0  501    0  0.00000000000E+00  0.00000000000E+00  0.93054546094E+01  0.94131761636E+01  0.14200000000E+01 0. -1.
         -4   -1    0    0    0  501 -0.00000000000E+00 -0.00000000000E+00 -0.10538185041E+02  0.10633425786E+02  0.14200000000E+01 0.  1.
       1023    2    1    2    0    0  0.00000000000E+00  0.00000000000E+00 -0.12327304315E+01  0.20046601950E+02  0.20008663759E+02 0.  0.
        -11    1    3    3    0    0  0.63650674325E+01  0.77168027630E+01 -0.46268665888E+00  0.10013850783E+02  0.51100000000E-03 0. -1.
         11    1    3    3    0    0 -0.63650674325E+01 -0.77168027630E+01 -0.77004377266E+00  0.10032751167E+02  0.51100000000E-03 0.  1.
<mgrwt>
<rscale>  0 0.20008664E+02</rscale>
<asrwt>0</asrwt>
<pdfrwt beam="1">  1        4 0.14472209E-02 0.20008664E+02</pdfrwt>
<pdfrwt beam="2">  1       -4 0.16368717E-02 0.20008664E+02</pdfrwt>
<totfact> 0.12999777E+06</totfact>
</mgrwt>
</event>
<event>
 5    1  0.1154861E-006  0.2000007E+02  0.7818608E-02  0.1745327E+00
         -4   -1    0    0    0  501 -0.00000000000E+00  0.00000000000E+00  0.46739360297E+01  0.48848825994E+01  0.14200000000E+01 0.  1.
          4   -1    0    0  501    0  0.00000000000E+00 -0.00000000000E+00 -0.20687403743E+02  0.20736081444E+02  0.14200000000E+01 0. -1.
       1023    2    1    2    0    0  0.00000000000E+00  0.00000000000E+00 -0.16013467714E+02  0.25620964043E+02  0.20000066257E+02 0.  0.
        -11    1    3    3    0    0 -0.82352667804E+01 -0.56728072010E+01 -0.79844781761E+01  0.12796571904E+02  0.51100000000E-03 0. -1.
         11    1    3    3    0    0  0.82352667804E+01  0.56728072010E+01 -0.80289895375E+01  0.12824392139E+02  0.51100000000E-03 0.  1.
<mgrwt>
<rscale>  0 0.20000066E+02</rscale>
<asrwt>0</asrwt>
<pdfrwt beam="2">  1        4 0.32026485E-02 0.20000066E+02</pdfrwt>
<pdfrwt beam="1">  1       -4 0.73903819E-03 0.20000066E+02</pdfrwt>
<totfact> 0.12691002E+06</totfact>
</mgrwt>
</event>
<event>
 5    1  0.1154861E-006  0.2000045E+02  0.7818608E-02  0.1745319E+00
          4   -1    0    0  501    0  0.00000000000E+00  0.00000000000E+00  0.30403165995E+02  0.30436308950E+02  0.14200000000E+01 0. -1.
         -4   -1    0    0    0  501 -0.00000000000E+00 -0.00000000000E+00 -0.30993536404E+01  0.34091630921E+01  0.14200000000E+01 0.  1.
       1023    2    1    2    0    0  0.00000000000E+00  0.00000000000E+00  0.27303812354E+02  0.33845472042E+02  0.20000445212E+02 0.  0.
        -11    1    3    3    0    0 -0.20467236383E+01 -0.97884505324E+01  0.13583996472E+02  0.16867951918E+02  0.51100000000E-03 0.  1.
         11    1    3    3    0    0  0.20467236383E+01  0.97884505324E+01  0.13719815882E+02  0.16977520124E+02  0.51100000000E-03 0. -1.
<mgrwt>
<rscale>  0 0.20000445E+02</rscale>
<asrwt>0</asrwt>
<pdfrwt beam="1">  1        4 0.47037912E-02 0.20000445E+02</pdfrwt>
<pdfrwt beam="2">  1       -4 0.50320458E-03 0.20000445E+02</pdfrwt>
<totfact> 0.12258704E+06</totfact>
</mgrwt>
</event>
<event>
 5    1  0.1154861E-006  0.2000011E+02  0.7818608E-02  0.1745326E+00
          4   -1    0    0  501    0  0.00000000000E+00  0.00000000000E+00  0.30167611094E+01  0.33342536783E+01  0.14200000000E+01 0. -1.
         -4   -1    0    0    0  501 -0.00000000000E+00 -0.00000000000E+00 -0.31156918912E+02  0.31189260910E+02  0.14200000000E+01 0.  1.
       1023    2    1    2    0    0  0.00000000000E+00  0.00000000000E+00 -0.28140157803E+02  0.34523514588E+02  0.20000114459E+02 0.  0.
        -11    1    3    3    0    0 -0.85561151931E+01 -0.51762733533E+01 -0.14096331450E+02  0.17283155778E+02  0.51100000000E-03 0.  1.
         11    1    3    3    0    0  0.85561151931E+01  0.51762733533E+01 -0.14043826353E+02  0.17240358811E+02  0.51100000000E-03 0. -1.
<mgrwt>
<rscale>  0 0.20000114E+02</rscale>
<asrwt>0</asrwt>
<pdfrwt beam="1">  1        4 0.49102747E-03 0.20000114E+02</pdfrwt>
<pdfrwt beam="2">  1       -4 0.48202823E-02 0.20000114E+02</pdfrwt>
<totfact> 0.12225387E+06</totfact>
</mgrwt>
</event>
<event>
 5    1  0.1154861E-006  0.2000075E+02  0.7818608E-02  0.1745313E+00
         -4   -1    0    0    0  501 -0.00000000000E+00  0.00000000000E+00  0.46167246907E+00  0.14931649168E+01  0.14200000000E+01 0. -1.
          4   -1    0    0  501    0  0.00000000000E+00 -0.00000000000E+00 -0.10127891440E+03  0.10128886860E+03  0.14200000000E+01 0.  1.
       1023    2    1    2    0    0  0.00000000000E+00  0.00000000000E+00 -0.10081724193E+03  0.10278203352E+03  0.20000753562E+02 0.  0.
        -11    1    3    3    0    0  0.29239662399E+01 -0.95632858905E+01 -0.50208275449E+02  0.51194501066E+02  0.51100000000E-03 0.  1.
         11    1    3    3    0    0 -0.29239662399E+01  0.95632858905E+01 -0.50608966482E+02  0.51587532450E+02  0.51100000000E-03 0. -1.
<mgrwt>
<rscale>  0 0.20000754E+02</rscale>
<asrwt>0</asrwt>
<pdfrwt beam="2">  1        4 0.15661474E-01 0.20000754E+02</pdfrwt>
<pdfrwt beam="1">  1       -4 0.15113789E-03 0.20000754E+02</pdfrwt>
<totfact> 0.97220126E+05</totfact>
</mgrwt>
</event>
<event>
 5    1  0.1154861E-006  0.2000173E+02  0.7818608E-02  0.1745294E+00
          4   -1    0    0  501    0  0.00000000000E+00  0.00000000000E+00  0.11521009399E+03  0.11521884462E+03  0.14200000000E+01 0.  1.
         -4   -1    0    0    0  501 -0.00000000000E+00 -0.00000000000E+00 -0.27270006966E+00  0.14459478995E+01  0.14200000000E+01 0. -1.
       1023    2    1    2    0    0  0.00000000000E+00  0.00000000000E+00  0.11493739392E+03  0.11666479252E+03  0.20001732276E+02 0.  0.
        -11    1    3    3    0    0 -0.97798389179E+01  0.20904820478E+01  0.57210550145E+02  0.58078071702E+02  0.51100000000E-03 0. -1.
         11    1    3    3    0    0  0.97798389179E+01 -0.20904820478E+01  0.57726843773E+02  0.58586720822E+02  0.51100000000E-03 0.  1.
<mgrwt>
<rscale>  0 0.20001732E+02</rscale>
<asrwt>0</asrwt>
<pdfrwt beam="1">  1        4 0.17815554E-01 0.20001732E+02</pdfrwt>
<pdfrwt beam="2">  1       -4 0.13287680E-03 0.20001732E+02</pdfrwt>
<totfact> 0.93490160E+05</totfact>
</mgrwt>
</event>
<event>
 4    1  0.1154861E-006  0.2006833E+02  0.7818608E-02  0.1743973E+00
          4   -1    0    0  501    0  0.00000000000E+00  0.00000000000E+00  0.92869943065E+01  0.93949275276E+01  0.14200000000E+01 0. -1.
         -4   -1    0    0    0  501 -0.00000000000E+00 -0.00000000000E+00 -0.10623360059E+02  0.10717843950E+02  0.14200000000E+01 0.  1.
        -11    1    1    2    0    0 -0.86188668487E+01  0.50913722794E+01 -0.13607183712E+01  0.10102400318E+02  0.51100000000E-03 0.  1.
         11    1    1    2    0    0  0.86188668487E+01 -0.50913722794E+01  0.24352618577E-01  0.10010371160E+02  0.51100000000E-03 0. -1.
<mgrwt>
<rscale>  0 0.20068326E+02</rscale>
<asrwt>0</asrwt>
<pdfrwt beam="1">  1        4 0.14443389E-02 0.20068326E+02</pdfrwt>
<pdfrwt beam="2">  1       -4 0.16499336E-02 0.20068326E+02</pdfrwt>
<totfact> 0.12917047E+06</totfact>
</mgrwt>
</event>
<event>
 4    1  0.1154861E-006  0.2001729E+02  0.7818608E-02  0.1744984E+00
         -4   -1    0    0    0  501 -0.00000000000E+00  0.00000000000E+00  0.11622421127E+01  0.18349950214E+01  0.14200000000E+01 0.  1.
          4   -1    0    0  501    0  0.00000000000E+00 -0.00000000000E+00 -0.66161466236E+02  0.66176702959E+02  0.14200000000E+01 0. -1.
        -11    1    1    2    0    0  0.73655017396E+01 -0.67685498042E+01 -0.33621858638E+02  0.35078387375E+02  0.51100000000E-03 0.  1.
         11    1    1    2    0    0 -0.73655017396E+01  0.67685498042E+01 -0.31377365485E+02  0.32933310605E+02  0.51100000000E-03 0. -1.
<mgrwt>
<rscale>  0 0.20017291E+02</rscale>
<asrwt>0</asrwt>
<pdfrwt beam="2">  1        4 0.10231607E-01 0.20017291E+02</pdfrwt>
<pdfrwt beam="1">  1       -4 0.23172881E-03 0.20017291E+02</pdfrwt>
<totfact> 0.10802800E+06</totfact>
</mgrwt>
</event>
<event>
 5    1  0.1201611E-006  0.2000138E+02  0.7818608E-02  0.1745301E+00
         -4   -1    0    0    0  501 -0.00000000000E+00  0.00000000000E+00  0.99086569648E+01  0.10009889252E+02  0.14200000000E+01 0. -1.
          4   -1    0    0  501    0  0.00000000000E+00 -0.00000000000E+00 -0.98900808004E+01  0.99915013005E+01  0.14200000000E+01 0.  1.
       1023    2    1    2    0    0  0.00000000000E+00  0.00000000000E+00  0.18576164340E-01  0.20001390553E+02  0.20001381927E+02 0.  0.
        -11    1    3    3    0    0 -0.11014764699E+01 -0.99397150396E+01  0.60610624676E-01  0.10000742942E+02  0.51100000000E-03 0.  1.
         11    1    3    3    0    0  0.11014764699E+01  0.99397150396E+01 -0.42034460336E-01  0.10000647611E+02  0.51100000000E-03 0. -1.
<mgrwt>
<rscale>  0 0.20001382E+02</rscale>
<asrwt>0</asrwt>
<pdfrwt beam="2">  1        4 0.15371396E-02 0.20001382E+02</pdfrwt>
<pdfrwt beam="1">  1       -4 0.15399974E-02 0.20001382E+02</pdfrwt>
<totfact> 0.13012126E+06</totfact>
</mgrwt>
</event>
<event>
 5    1  0.1156831E-006  0.2000153E+02  0.7818608E-02  0.1745298E+00
          4   -1    0    0  501    0  0.00000000000E+00  0.00000000000E+00  0.40907878797E+01  0.43302361917E+01  0.14200000000E+01 0.  1.
         -4   -1    0    0    0  501 -0.00000000000E+00 -0.00000000000E+00 -0.23492206217E+02  0.23535083449E+02  0.14200000000E+01 0. -1.
       1023    2    1    2    0    0  0.00000000000E+00  0.00000000000E+00 -0.19401418338E+02  0.27865319641E+02  0.20001525071E+02 0.  0.
        -11    1    3    3    0    0 -0.90754496230E+01 -0.42010464122E+01 -0.96286649531E+01  0.13882498545E+02  0.51100000000E-03 0. -1.
         11    1    3    3    0    0  0.90754496230E+01  0.42010464122E+01 -0.97727533845E+01  0.13982821096E+02  0.51100000000E-03 0.  1.
<mgrwt>
<rscale>  0 0.20001525E+02</rscale>
<asrwt>0</asrwt>
<pdfrwt beam="1">  1        4 0.65106934E-03 0.20001525E+02</pdfrwt>
<pdfrwt beam="2">  1       -4 0.36359029E-02 0.20001525E+02</pdfrwt>
<totfact> 0.12566826E+06</totfact>
</mgrwt>
</event>
<event>
 5    1  0.1154861E-006  0.2000026E+02  0.7818608E-02  0.1745323E+00
         -4   -1    0    0    0  501 -0.00000000000E+00  0.00000000000E+00  0.21733192006E+01  0.25960963672E+01  0.14200000000E+01 0. -1.
          4   -1    0    0  501    0  0.00000000000E+00 -0.00000000000E+00 -0.41498948972E+02  0.41523236456E+02  0.14200000000E+01 0.  1.
       1023    2    1    2    0    0  0.00000000000E+00  0.00000000000E+00 -0.39325629771E+02  0.44119332823E+02  0.20000259294E+02 0.  0.
        -11    1    3    3    0    0 -0.68165486342E+01  0.73168691760E+01 -0.19720460287E+02  0.22111048460E+02  0.51100000000E-03 0.  1.
         11    1    3    3    0    0  0.68165486342E+01 -0.73168691760E+01 -0.19605169485E+02  0.22008284363E+02  0.51100000000E-03 0. -1.
<mgrwt>
<rscale>  0 0.20000259E+02</rscale>
<asrwt>0</asrwt>
<pdfrwt beam="2">  1        4 0.64188427E-02 0.20000259E+02</pdfrwt>
<pdfrwt beam="1">  1       -4 0.36874642E-03 0.20000259E+02</pdfrwt>
<totfact> 0.11774618E+06</totfact>
</mgrwt>
</event>
<event>
 5    1  0.1154861E-006  0.2000206E+02  0.7818608E-02  0.1745287E+00
          4   -1    0    0  501    0  0.00000000000E+00  0.00000000000E+00  0.32169613080E+02  0.32200937963E+02  0.14200000000E+01 0. -1.
         -4   -1    0    0    0  501 -0.00000000000E+00 -0.00000000000E+00 -0.29123782574E+01  0.32401152933E+01  0.14200000000E+01 0.  1.
       1023    2    1    2    0    0  0.00000000000E+00  0.00000000000E+00  0.29257234822E+02  0.35441053257E+02  0.20002061556E+02 0.  0.
        -11    1    3    3    0    0  0.97035009947E+01  0.24210601072E+01  0.14688776500E+02  0.17770189051E+02  0.51100000000E-03 0.  1.
         11    1    3    3    0    0 -0.97035009947E+01 -0.24210601072E+01  0.14568458323E+02  0.17670864205E+02  0.51100000000E-03 0. -1.
<mgrwt>
<rscale>  0 0.20002062E+02</rscale>
<asrwt>0</asrwt>
<pdfrwt beam="1">  1        4 0.49767911E-02 0.20002062E+02</pdfrwt>
<pdfrwt beam="2">  1       -4 0.47567837E-03 0.20002062E+02</pdfrwt>
<totfact> 0.12177771E+06</totfact>
</mgrwt>
</event>
<event>
 5    1  0.1158166E-006  0.2000044E+02  0.7818608E-02  0.1745319E+00
         -4   -1    0    0    0  501 -0.00000000000E+00  0.00000000000E+00  0.98731574359E+01  0.99747500096E+01  0.14200000000E+01 0.  1.
          4   -1    0    0  501    0  0.00000000000E+00 -0.00000000000E+00 -0.99246847400E+01  0.10025755193E+02  0.14200000000E+01 0. -1.
       1023    2    1    2    0    0  0.00000000000E+00  0.00000000000E+00 -0.51527304094E-01  0.20000505203E+02  0.20000438828E+02 0.  0.
        -11    1    3    3    0    0  0.57800784082E+01 -0.81605241717E+01  0.46814941805E-02  0.10000174165E+02  0.51100000000E-03 0.  1.
         11    1    3    3    0    0 -0.57800784082E+01  0.81605241717E+01 -0.56208798275E-01  0.10000331037E+02  0.51100000000E-03 0. -1.
<mgrwt>
<rscale>  0 0.20000439E+02</rscale>
<asrwt>0</asrwt>
<pdfrwt beam="2">  1        4 0.15424640E-02 0.20000439E+02</pdfrwt>
<pdfrwt beam="1">  1       -4 0.15345368E-02 0.20000439E+02</pdfrwt>
<totfact> 0.13013432E+06</totfact>
</mgrwt>
</event>
<event>
 4    1  0.1154861E-006  0.2006543E+02  0.7818608E-02  0.1744030E+00
         -4   -1    0    0    0  501 -0.00000000000E+00  0.00000000000E+00  0.88880426944E+02  0.88891769550E+02  0.14200000000E+01 0.  1.
          4   -1    0    0  501    0  0.00000000000E+00 -0.00000000000E+00 -0.67136440549E+00  0.15707100830E+01  0.14200000000E+01 0. -1.
        -11    1    1    2    0    0 -0.69573084849E+01 -0.72249563545E+01  0.45125067621E+02  0.46226354645E+02  0.51100000000E-03 0. -1.
         11    1    1    2    0    0  0.69573084849E+01  0.72249563545E+01  0.43083994917E+02  0.44236124988E+02  0.51100000000E-03 0.  1.
<mgrwt>
<rscale>  0 0.20065431E+02</rscale>
<asrwt>0</asrwt>
<pdfrwt beam="2">  1        4 0.17333974E-03 0.20065431E+02</pdfrwt>
<pdfrwt beam="1">  1       -4 0.13743968E-01 0.20065431E+02</pdfrwt>
<totfact> 0.10016027E+06</totfact>
</mgrwt>
</event>
<event>
 5    1  0.1154861E-006  0.2000140E+02  0.7818608E-02  0.1745300E+00
          4   -1    0    0  501    0  0.00000000000E+00  0.00000000000E+00  0.13480733872E+01  0.19579841310E+01  0.14200000000E+01 0.  1.
         -4   -1    0    0    0  501 -0.00000000000E+00 -0.00000000000E+00 -0.59883621834E+02  0.59900455457E+02  0.14200000000E+01 0. -1.
       1023    2    1    2    0    0  0.00000000000E+00  0.00000000000E+00 -0.58535548446E+02  0.61858439588E+02  0.20001402858E+02 0.  0.
        -11    1    3    3    0    0 -0.97490767990E+01  0.22291830736E+01 -0.29318893337E+02  0.30977592908E+02  0.51100000000E-03 0.  1.
         11    1    3    3    0    0  0.97490767990E+01 -0.22291830736E+01 -0.29216655110E+02  0.30880846680E+02  0.51100000000E-03 0. -1.
<mgrwt>
<rscale>  0 0.20001403E+02</rscale>
<asrwt>0</asrwt>
<pdfrwt beam="1">  1        4 0.25560706E-03 0.20001403E+02</pdfrwt>
<pdfrwt beam="2">  1       -4 0.92610743E-02 0.20001403E+02</pdfrwt>
<totfact> 0.11046517E+06</totfact>
</mgrwt>
</event>
<event>
 5    1  0.1154861E-006  0.2000089E+02  0.7818608E-02  0.1745310E+00
          4   -1    0    0  501    0  0.00000000000E+00  0.00000000000E+00  0.61342029045E+00  0.15468304538E+01  0.14200000000E+01 0. -1.
         -4   -1    0    0    0  501 -0.00000000000E+00 -0.00000000000E+00 -0.91648808846E+02  0.91659808874E+02  0.14200000000E+01 0.  1.
       1023    2    1    2    0    0  0.00000000000E+00  0.00000000000E+00 -0.91035388555E+02  0.93206639328E+02  0.20000891115E+02 0.  0.
        -11    1    3    3    0    0 -0.87946344936E+01  0.47599618468E+01 -0.45154371118E+02  0.46248460125E+02  0.51100000000E-03 0. -1.
         11    1    3    3    0    0  0.87946344936E+01 -0.47599618468E+01 -0.45881017437E+02  0.46958179202E+02  0.51100000000E-03 0.  1.
<mgrwt>
<rscale>  0 0.20000891E+02</rscale>
<asrwt>0</asrwt>
<pdfrwt beam="1">  1        4 0.16701936E-03 0.20000891E+02</pdfrwt>
<pdfrwt beam="2">  1       -4 0.14172458E-01 0.20000891E+02</pdfrwt>
<totfact> 0.99982189E+05</totfact>
</mgrwt>
</event>
<event>
 5    1  0.1154861E-006  0.2000028E+02  0.7818608E-02  0.1745323E+00
          4   -1    0    0  501    0  0.00000000000E+00  0.00000000000E+00  0.98810972535E+01  0.99826090244E+01  0.14200000000E+01 0. -1.
         -4   -1    0    0    0  501 -0.00000000000E+00 -0.00000000000E+00 -0.99165500024E+01  0.10017702529E+02  0.14200000000E+01 0.  1.
       1023    2    1    2    0    0  0.00000000000E+00  0.00000000000E+00 -0.35452748901E-01  0.20000311553E+02  0.20000280131E+02 0.  0.
        -11    1    3    3    0    0 -0.56892136467E+01  0.82240373774E+01 -0.47024294325E-01  0.10000207710E+02  0.51100000000E-03 0. -1.
         11    1    3    3    0    0  0.56892136467E+01 -0.82240373774E+01  0.11571545424E-01  0.10000103843E+02  0.51100000000E-03 0.  1.
<mgrwt>
<rscale>  0 0.20000280E+02</rscale>
<asrwt>0</asrwt>
<pdfrwt beam="1">  1        4 0.15357584E-02 0.20000280E+02</pdfrwt>
<pdfrwt beam="2">  1       -4 0.15412126E-02 0.20000280E+02</pdfrwt>
<totfact> 0.13013654E+06</totfact>
</mgrwt>
</event>
<event>
 5    1  0.1154861E-006  0.2000211E+02  0.7818608E-02  0.1745286E+00
         -4   -1    0    0    0  501 -0.00000000000E+00  0.00000000000E+00  0.34708518759E+02  0.34737554239E+02  0.14200000000E+01 0.  1.
          4   -1    0    0  501    0  0.00000000000E+00 -0.00000000000E+00 -0.26746410405E+01  0.30282180726E+01  0.14200000000E+01 0. -1.
       1023    2    1    2    0    0  0.00000000000E+00  0.00000000000E+00  0.32033877719E+02  0.37765772311E+02  0.20002105803E+02 0.  0.
        -11    1    3    3    0    0  0.43055432777E+01  0.90268103606E+01  0.16003498794E+02  0.18871485954E+02  0.51100000000E-03 0.  1.
         11    1    3    3    0    0 -0.43055432777E+01 -0.90268103606E+01  0.16030378925E+02  0.18894286357E+02  0.51100000000E-03 0. -1.
<mgrwt>
<rscale>  0 0.20002106E+02</rscale>
<asrwt>0</asrwt>
<pdfrwt beam="2">  1        4 0.44091495E-03 0.20002106E+02</pdfrwt>
<pdfrwt beam="1">  1       -4 0.53692040E-02 0.20002106E+02</pdfrwt>
<totfact> 0.12065323E+06</totfact>
</mgrwt>
</event>
<event>
 5    1  0.1180683E-006  0.2000163E+02  0.7818608E-02  0.1745296E+00
         -4   -1    0    0    0  501 -0.00000000000E+00  0.00000000000E+00  0.25836826892E+02  0.25875819289E+02  0.14200000000E+01 0.  1.
          4   -1    0    0  501    0  0.00000000000E+00 -0.00000000000E+00 -0.36974142701E+01  0.39607161328E+01  0.14200000000E+01 0. -1.
       1023    2    1    2    0    0  0.00000000000E+00  0.00000000000E+00  0.22139412622E+02  0.29836535422E+02  0.20001631301E+02 0.  0.
        -11    1    3    3    0    0  0.97097892307E+01 -0.23921745636E+01  0.11244988763E+02  0.15048331422E+02  0.51100000000E-03 0. -1.
         11    1    3    3    0    0 -0.97097892307E+01  0.23921745636E+01  0.10894423860E+02  0.14788204000E+02  0.51100000000E-03 0.  1.
<mgrwt>
<rscale>  0 0.20001631E+02</rscale>
<asrwt>0</asrwt>
<pdfrwt beam="2">  1        4 0.59208637E-03 0.20001631E+02</pdfrwt>
<pdfrwt beam="1">  1       -4 0.39981498E-02 0.20001631E+02</pdfrwt>
<totfact> 0.12462221E+06</totfact>
</mgrwt>
</event>
<event>
 5    1  0.1154861E-006  0.2000046E+02  0.7818608E-02  0.1745319E+00
          4   -1    0    0  501    0  0.00000000000E+00  0.00000000000E+00  0.37505454837E+01  0.40103605106E+01  0.14200000000E+01 0.  1.
         -4   -1    0    0    0  501 -0.00000000000E+00 -0.00000000000E+00 -0.25491135578E+02  0.25530655946E+02  0.14200000000E+01 0. -1.
       1023    2    1    2    0    0  0.00000000000E+00  0.00000000000E+00 -0.21740590094E+02  0.29541016457E+02  0.20000459886E+02 0.  0.
        -11    1    3    3    0    0  0.88321159420E+01  0.46902334048E+01 -0.10861280333E+02  0.14763873886E+02  0.51100000000E-03 0. -1.
         11    1    3    3    0    0 -0.88321159420E+01 -0.46902334048E+01 -0.10879309762E+02  0.14777142571E+02  0.51100000000E-03 0.  1.
<mgrwt>
<rscale>  0 0.20000460E+02</rscale>
<asrwt>0</asrwt>
<pdfrwt beam="1">  1        4 0.60003281E-03 0.20000460E+02</pdfrwt>
<pdfrwt beam="2">  1       -4 0.39447389E-02 0.20000460E+02</pdfrwt>
<totfact> 0.12479200E+06</totfact>
</mgrwt>
</event>
<event>
 5    1  0.1154861E-006  0.2000093E+02  0.7818608E-02  0.1745310E+00
         -4   -1    0    0    0  501 -0.00000000000E+00  0.00000000000E+00  0.19388747792E+01  0.24032551695E+01  0.14200000000E+01 0.  1.
          4   -1    0    0  501    0  0.00000000000E+00 -0.00000000000E+00 -0.45588006298E+02  0.45610116402E+02  0.14200000000E+01 0. -1.
       1023    2    1    2    0    0  0.00000000000E+00  0.00000000000E+00 -0.43649131518E+02  0.48013371571E+02  0.20000929162E+02 0.  0.
        -11    1    3    3    0    0  0.77664082242E+01  0.62998257496E+01 -0.21665504760E+02  0.23862082850E+02  0.51100000000E-03 0.  1.
         11    1    3    3    0    0 -0.77664082242E+01 -0.62998257496E+01 -0.21983626758E+02  0.24151288721E+02  0.51100000000E-03 0. -1.
<mgrwt>
<rscale>  0 0.20000929E+02</rscale>
<asrwt>0</asrwt>
<pdfrwt beam="2">  1        4 0.70509611E-02 0.20000929E+02</pdfrwt>
<pdfrwt beam="1">  1       -4 0.33571081E-03 0.20000929E+02</pdfrwt>
<totfact> 0.11603499E+06</totfact>
</mgrwt>
</event>
<event>
 4    1  0.1154861E-006  0.2005475E+02  0.7818608E-02  0.1744241E+00
          4   -1    0    0  501    0  0.00000000000E+00  0.00000000000E+00  0.59016032187E+01  0.60700346417E+01  0.14200000000E+01 0.  1.
         -4   -1    0    0    0  501 -0.00000000000E+00 -0.00000000000E+00 -0.16598576410E+02  0.16659205829E+02  0.14200000000E+01 0. -1.
        -11    1    1    2    0    0  0.99575384137E+01 -0.10655046446E+01 -0.47701261831E+01  0.11092428745E+02  0.51100000000E-03 0.  1.
         11    1    1    2    0    0 -0.99575384137E+01  0.10655046446E+01 -0.59268470087E+01  0.11636811725E+02  0.51100000000E-03 0. -1.
<mgrwt>
<rscale>  0 0.20054753E+02</rscale>
<asrwt>0</asrwt>
<pdfrwt beam="1">  1        4 0.92555903E-03 0.20054753E+02</pdfrwt>
<pdfrwt beam="2">  1       -4 0.25712472E-02 0.20054753E+02</pdfrwt>
<totfact> 0.12782636E+06</totfact>
</mgrwt>
</event>
<event>
 5    1  0.1154861E-006  0.2000341E+02  0.7818608E-02  0.1745260E+00
         -4   -1    0    0    0  501 -0.00000000000E+00  0.00000000000E+00  0.29653064269E+01  0.32877716170E+01  0.14200000000E+01 0. -1.
          4   -1    0    0  501    0  0.00000000000E+00 -0.00000000000E+00 -0.31655959320E+02  0.31687791978E+02  0.14200000000E+01 0.  1.
       1023    2    1    2    0    0  0.00000000000E+00  0.00000000000E+00 -0.28690652893E+02  0.34975563595E+02  0.20003411844E+02 0.  0.
        -11    1    3    3    0    0  0.38824759424E+01  0.92169643355E+01 -0.14188254165E+02  0.17358934516E+02  0.51100000000E-03 0. -1.
         11    1    3    3    0    0 -0.38824759424E+01 -0.92169643355E+01 -0.14502398728E+02  0.17616629080E+02  0.51100000000E-03 0.  1.
<mgrwt>
<rscale>  0 0.20003412E+02</rscale>
<asrwt>0</asrwt>
<pdfrwt beam="2">  1        4 0.48974010E-02 0.20003412E+02</pdfrwt>
<pdfrwt beam="1">  1       -4 0.48345469E-03 0.20003412E+02</pdfrwt>
<totfact> 0.12198972E+06</totfact>
</mgrwt>
</event>
<event>
 5    1  0.1154861E-006  0.2000038E+02  0.7818608E-02  0.1745320E+00
         -4   -1    0    0    0  501 -0.00000000000E+00  0.00000000000E+00  0.45894475142E+02  0.45916437673E+02  0.14200000000E+01 0.  1.
          4   -1    0    0  501    0  0.00000000000E+00 -0.00000000000E+00 -0.19226921153E+01  0.23902186030E+01  0.14200000000E+01 0. -1.
       1023    2    1    2    0    0  0.00000000000E+00  0.00000000000E+00  0.43971783027E+02  0.48306656276E+02  0.20000383447E+02 0.  0.
        -11    1    3    3    0    0  0.47296967513E+01 -0.88109710206E+01  0.22044685569E+02  0.24206846218E+02  0.51100000000E-03 0.  1.
         11    1    3    3    0    0 -0.47296967513E+01  0.88109710206E+01  0.21927097458E+02  0.24099810059E+02  0.51100000000E-03 0. -1.
<mgrwt>
<rscale>  0 0.20000383E+02</rscale>
<asrwt>0</asrwt>
<pdfrwt beam="2">  1        4 0.33345179E-03 0.20000383E+02</pdfrwt>
<pdfrwt beam="1">  1       -4 0.70983414E-02 0.20000383E+02</pdfrwt>
<totfact> 0.11591578E+06</totfact>
</mgrwt>
</event>
<event>
 5    1  0.1154861E-006  0.2000027E+02  0.7818608E-02  0.1745323E+00
         -4   -1    0    0    0  501 -0.00000000000E+00  0.00000000000E+00  0.11906763267E+03  0.11907609983E+03  0.14200000000E+01 0.  1.
          4   -1    0    0  501    0  0.00000000000E+00 -0.00000000000E+00 -0.22500874809E+00  0.14377165704E+01  0.14200000000E+01 0. -1.
       1023    2    1    2    0    0  0.00000000000E+00  0.00000000000E+00  0.11884262392E+03  0.12051381640E+03  0.20000267039E+02 0.  0.
        -11    1    3    3    0    0 -0.97345709082E+01 -0.22891288828E+01  0.59579401428E+02  0.60412805402E+02  0.51100000000E-03 0.  1.
         11    1    3    3    0    0  0.97345709082E+01  0.22891288828E+01  0.59263222496E+02  0.60101010995E+02  0.51100000000E-03 0. -1.
<mgrwt>
<rscale>  0 0.20000267E+02</rscale>
<asrwt>0</asrwt>
<pdfrwt beam="2">  1        4 0.12855316E-03 0.20000267E+02</pdfrwt>
<pdfrwt beam="1">  1       -4 0.18412049E-01 0.20000267E+02</pdfrwt>
<totfact> 0.92526434E+05</totfact>
</mgrwt>
</event>
<event>
 5    1  0.1181136E-006  0.2000077E+02  0.7818608E-02  0.1745313E+00
         -4   -1    0    0    0  501 -0.00000000000E+00  0.00000000000E+00  0.33042663955E+01  0.35964672127E+01  0.14200000000E+01 0.  1.
          4   -1    0    0  501    0  0.00000000000E+00 -0.00000000000E+00 -0.28674138236E+02  0.28709277309E+02  0.14200000000E+01 0. -1.
       1023    2    1    2    0    0  0.00000000000E+00  0.00000000000E+00 -0.25369871841E+02  0.32305744522E+02  0.20000768282E+02 0.  0.
        -11    1    3    3    0    0 -0.47815490687E+01 -0.87831247666E+01 -0.12629203744E+02  0.16109105488E+02  0.51100000000E-03 0.  1.
         11    1    3    3    0    0  0.47815490687E+01  0.87831247666E+01 -0.12740668097E+02  0.16196639033E+02  0.51100000000E-03 0. -1.
<mgrwt>
<rscale>  0 0.20000768E+02</rscale>
<asrwt>0</asrwt>
<pdfrwt beam="2">  1        4 0.44365857E-02 0.20000768E+02</pdfrwt>
<pdfrwt beam="1">  1       -4 0.53352869E-03 0.20000768E+02</pdfrwt>
<totfact> 0.12335916E+06</totfact>
</mgrwt>
</event>
<event>
 5    1  0.1154861E-006  0.2000339E+02  0.7818608E-02  0.1745261E+00
          4   -1    0    0  501    0  0.00000000000E+00  0.00000000000E+00  0.15206116425E+01  0.20805431424E+01  0.14200000000E+01 0. -1.
         -4   -1    0    0    0  501 -0.00000000000E+00 -0.00000000000E+00 -0.54986072796E+02  0.55004405292E+02  0.14200000000E+01 0.  1.
       1023    2    1    2    0    0  0.00000000000E+00  0.00000000000E+00 -0.53465461153E+02  0.57084948434E+02  0.20003394747E+02 0.  0.
        -11    1    3    3    0    0 -0.96187812740E+01  0.27406362300E+01 -0.26857448436E+02  0.28659284305E+02  0.51100000000E-03 0.  1.
         11    1    3    3    0    0  0.96187812740E+01 -0.27406362300E+01 -0.26608012717E+02  0.28425664129E+02  0.51100000000E-03 0. -1.
<mgrwt>
<rscale>  0 0.20003395E+02</rscale>
<asrwt>0</asrwt>
<pdfrwt beam="1">  1        4 0.27842214E-03 0.20003395E+02</pdfrwt>
<pdfrwt beam="2">  1       -4 0.85038764E-02 0.20003395E+02</pdfrwt>
<totfact> 0.11228255E+06</totfact>
</mgrwt>
</event>
<event>
 5    1  0.1200750E-006  0.2000112E+02  0.7818608E-02  0.1745306E+00
          4   -1    0    0  501    0  0.00000000000E+00  0.00000000000E+00  0.18342695992E+02  0.18397578544E+02  0.14200000000E+01 0. -1.
         -4   -1    0    0    0  501 -0.00000000000E+00 -0.00000000000E+00 -0.52956682423E+01  0.54827458571E+01  0.14200000000E+01 0.  1.
       1023    2    1    2    0    0  0.00000000000E+00  0.00000000000E+00  0.13047027750E+02  0.23880324401E+02  0.20001123978E+02 0.  0.
        -11    1    3    3    0    0 -0.90639879454E+01 -0.42242679783E+01  0.63987338883E+01  0.11871988589E+02  0.51100000000E-03 0.  1.
         11    1    3    3    0    0  0.90639879454E+01  0.42242679783E+01  0.66482938617E+01  0.12008335811E+02  0.51100000000E-03 0. -1.
<mgrwt>
<rscale>  0 0.20001124E+02</rscale>
<asrwt>0</asrwt>
<pdfrwt beam="1">  1        4 0.28405655E-02 0.20001124E+02</pdfrwt>
<pdfrwt beam="2">  1       -4 0.83333052E-03 0.20001124E+02</pdfrwt>
<totfact> 0.12787052E+06</totfact>
</mgrwt>
</event>
<event>
 5    1  0.1154861E-006  0.2000062E+02  0.7818608E-02  0.1745316E+00
          4   -1    0    0  501    0  0.00000000000E+00  0.00000000000E+00  0.55401366165E+02  0.55419561284E+02  0.14200000000E+01 0. -1.
         -4   -1    0    0    0  501 -0.00000000000E+00 -0.00000000000E+00 -0.15044247277E+01  0.20687420722E+01  0.14200000000E+01 0.  1.
       1023    2    1    2    0    0  0.00000000000E+00  0.00000000000E+00  0.53896941437E+02  0.57488303357E+02  0.20000618154E+02 0.  0.
        -11    1    3    3    0    0  0.71219736874E+00 -0.99747811272E+01  0.26799178833E+02  0.28604186233E+02  0.51100000000E-03 0. -1.
         11    1    3    3    0    0 -0.71219736874E+00  0.99747811272E+01  0.27097762604E+02  0.28884117124E+02  0.51100000000E-03 0.  1.
<mgrwt>
<rscale>  0 0.20000618E+02</rscale>
<asrwt>0</asrwt>
<pdfrwt beam="1">  1        4 0.85680973E-02 0.20000618E+02</pdfrwt>
<pdfrwt beam="2">  1       -4 0.27625856E-03 0.20000618E+02</pdfrwt>
<totfact> 0.11215552E+06</totfact>
</mgrwt>
</event>
<event>
 5    1  0.1154861E-006  0.2000294E+02  0.7818608E-02  0.1745270E+00
          4   -1    0    0  501    0  0.00000000000E+00  0.00000000000E+00  0.23552850982E+02  0.23595618012E+02  0.14200000000E+01 0.  1.
         -4   -1    0    0    0  501 -0.00000000000E+00 -0.00000000000E+00 -0.40802730245E+01  0.43203041507E+01  0.14200000000E+01 0. -1.
       1023    2    1    2    0    0  0.00000000000E+00  0.00000000000E+00  0.19472577958E+02  0.27915922163E+02  0.20002935232E+02 0.  0.
        -11    1    3    3    0    0 -0.89543138312E+01 -0.44540040541E+01  0.98857275086E+01  0.14062200999E+02  0.51100000000E-03 0.  1.
         11    1    3    3    0    0  0.89543138312E+01  0.44540040541E+01  0.95868504492E+01  0.13853721164E+02  0.51100000000E-03 0. -1.
<mgrwt>
<rscale>  0 0.20002935E+02</rscale>
<asrwt>0</asrwt>
<pdfrwt beam="1">  1        4 0.36452692E-02 0.20002935E+02</pdfrwt>
<pdfrwt beam="2">  1       -4 0.64948802E-03 0.20002935E+02</pdfrwt>
<totfact> 0.12562309E+06</totfact>
</mgrwt>
</event>
<event>
 5    1  0.1154861E-006  0.2000343E+02  0.7818608E-02  0.1745260E+00
          4   -1    0    0  501    0  0.00000000000E+00  0.00000000000E+00  0.13999524061E+02  0.14071356506E+02  0.14200000000E+01 0. -1.
         -4   -1    0    0    0  501 -0.00000000000E+00 -0.00000000000E+00 -0.69837992893E+01  0.71266999735E+01  0.14200000000E+01 0.  1.
       1023    2    1    2    0    0  0.00000000000E+00  0.00000000000E+00  0.70157247714E+01  0.21198056480E+02  0.20003429817E+02 0.  0.
        -11    1    3    3    0    0  0.99918199693E+01  0.44338230629E+00  0.34704453320E+01  0.10586644664E+02  0.51100000000E-03 0. -1.
         11    1    3    3    0    0 -0.99918199693E+01 -0.44338230629E+00  0.35452794395E+01  0.10611411816E+02  0.51100000000E-03 0.  1.
<mgrwt>
<rscale>  0 0.20003430E+02</rscale>
<asrwt>0</asrwt>
<pdfrwt beam="1">  1        4 0.21702909E-02 0.20003430E+02</pdfrwt>
<pdfrwt beam="2">  1       -4 0.10909486E-02 0.20003430E+02</pdfrwt>
<totfact> 0.12938553E+06</totfact>
</mgrwt>
</event>
<event>
 5    1  0.1181490E-006  0.2000065E+02  0.7818608E-02  0.1745315E+00
         -4   -1    0    0    0  501 -0.00000000000E+00  0.00000000000E+00  0.88647023799E+01  0.89777139788E+01  0.14200000000E+01 0.  1.
          4   -1    0    0  501    0  0.00000000000E+00 -0.00000000000E+00 -0.11051241262E+02  0.11142097353E+02  0.14200000000E+01 0. -1.
       1023    2    1    2    0    0  0.00000000000E+00  0.00000000000E+00 -0.21865388822E+01  0.20119811332E+02  0.20000646384E+02 0.  0.
        -11    1    3    3    0    0 -0.39062077756E+01  0.92057149290E+01 -0.10398764726E+01  0.10054103136E+02  0.51100000000E-03 0. -1.
         11    1    3    3    0    0  0.39062077756E+01 -0.92057149290E+01 -0.11466624096E+01  0.10065708196E+02  0.51100000000E-03 0.  1.
<mgrwt>
<rscale>  0 0.20000646E+02</rscale>
<asrwt>0</asrwt>
<pdfrwt beam="2">  1        4 0.17158731E-02 0.20000646E+02</pdfrwt>
<pdfrwt beam="1">  1       -4 0.13794825E-02 0.20000646E+02</pdfrwt>
<totfact> 0.13006075E+06</totfact>
</mgrwt>
</event>
<event>
 4    1  0.1154861E-006  0.2001917E+02  0.7818608E-02  0.1744947E+00
          4   -1    0    0  501    0  0.00000000000E+00  0.00000000000E+00  0.97310965348E+01  0.98341567900E+01  0.14200000000E+01 0.  1.
         -4   -1    0    0    0  501 -0.00000000000E+00 -0.00000000000E+00 -0.10088766200E+02  0.10188209040E+02  0.14200000000E+01 0. -1.
        -11    1    1    2    0    0 -0.78044652531E+01  0.62675169325E+01 -0.15999541701E+00  0.10010846377E+02  0.51100000000E-03 0. -1.
         11    1    1    2    0    0  0.78044652531E+01 -0.62675169325E+01 -0.19767424823E+00  0.10011519453E+02  0.51100000000E-03 0.  1.
<mgrwt>
<rscale>  0 0.20019171E+02</rscale>
<asrwt>0</asrwt>
<pdfrwt beam="1">  1        4 0.15126689E-02 0.20019171E+02</pdfrwt>
<pdfrwt beam="2">  1       -4 0.15676950E-02 0.20019171E+02</pdfrwt>
<totfact> 0.12987280E+06</totfact>
</mgrwt>
</event>
<event>
 5    1  0.1154861E-006  0.2000024E+02  0.7818608E-02  0.1745323E+00
         -4   -1    0    0    0  501 -0.00000000000E+00  0.00000000000E+00  0.40346314921E+01  0.42772247167E+01  0.14200000000E+01 0.  1.
          4   -1    0    0  501    0  0.00000000000E+00 -0.00000000000E+00 -0.23798224065E+02  0.23840550930E+02  0.14200000000E+01 0. -1.
       1023    2    1    2    0    0  0.00000000000E+00  0.00000000000E+00 -0.19763592573E+02  0.28117775647E+02  0.20000242897E+02 0.  0.
        -11    1    3    3    0    0  0.92002697832E+01  0.39186508877E+01 -0.98248652701E+01  0.14018871806E+02  0.51100000000E-03 0.  1.
         11    1    3    3    0    0 -0.92002697832E+01 -0.39186508877E+01 -0.99387273027E+01  0.14098903841E+02  0.51100000000E-03 0. -1.
<mgrwt>
<rscale>  0 0.20000243E+02</rscale>
<asrwt>0</asrwt>
<pdfrwt beam="2">  1        4 0.36831821E-02 0.20000243E+02</pdfrwt>
<pdfrwt beam="1">  1       -4 0.64262948E-03 0.20000243E+02</pdfrwt>
<totfact> 0.12554933E+06</totfact>
</mgrwt>
</event>
<event>
 5    1  0.1154861E-006  0.2000009E+02  0.7818608E-02  0.1745326E+00
         -4   -1    0    0    0  501 -0.00000000000E+00  0.00000000000E+00  0.46533927354E+01  0.48652301024E+01  0.14200000000E+01 0. -1.
          4   -1    0    0  501    0  0.00000000000E+00 -0.00000000000E+00 -0.20775020484E+02  0.20823493370E+02  0.14200000000E+01 0.  1.
       1023    2    1    2    0    0  0.00000000000E+00  0.00000000000E+00 -0.16121627749E+02  0.25688723472E+02  0.20000090809E+02 0.  0.
        -11    1    3    3    0    0 -0.99255866334E+01  0.12179730869E+01 -0.80436115401E+01  0.12833565963E+02  0.51100000000E-03 0.  1.
         11    1    3    3    0    0  0.99255866334E+01 -0.12179730869E+01 -0.80780162087E+01  0.12855157509E+02  0.51100000000E-03 0. -1.
<mgrwt>
<rscale>  0 0.20000091E+02</rscale>
<asrwt>0</asrwt>
<pdfrwt beam="2">  1        4 0.32161808E-02 0.20000091E+02</pdfrwt>
<pdfrwt beam="1">  1       -4 0.73593045E-03 0.20000091E+02</pdfrwt>
<totfact> 0.12687222E+06</totfact>
</mgrwt>
</event>
<event>
 5    1  0.1172298E-006  0.2000158E+02  0.7818608E-02  0.1745297E+00
         -4   -1    0    0    0  501 -0.00000000000E+00  0.00000000000E+00  0.30726021840E+02  0.30758816917E+02  0.14200000000E+01 0.  1.
          4   -1    0    0  501    0  0.00000000000E+00 -0.00000000000E+00 -0.30639402340E+01  0.33770001121E+01  0.14200000000E+01 0. -1.
       1023    2    1    2    0    0  0.00000000000E+00  0.00000000000E+00  0.27662081606E+02  0.34135817029E+02  0.20001581074E+02 0.  0.
        -11    1    3    3    0    0  0.97730930392E+01 -0.21216332496E+01  0.13773521135E+02  0.17021297246E+02  0.51100000000E-03 0. -1.
         11    1    3    3    0    0 -0.97730930392E+01  0.21216332496E+01  0.13888560471E+02  0.17114519783E+02  0.51100000000E-03 0.  1.
<mgrwt>
<rscale>  0 0.20001581E+02</rscale>
<asrwt>0</asrwt>
<pdfrwt beam="2">  1        4 0.49797963E-03 0.20001581E+02</pdfrwt>
<pdfrwt beam="1">  1       -4 0.47536847E-02 0.20001581E+02</pdfrwt>
<totfact> 0.12242818E+06</totfact>
</mgrwt>
</event>
<event>
 5    1  0.1194831E-006  0.2000110E+02  0.7818608E-02  0.1745306E+00
          4   -1    0    0  501    0  0.00000000000E+00  0.00000000000E+00  0.21247501252E+01  0.25555749049E+01  0.14200000000E+01 0. -1.
         -4   -1    0    0    0  501 -0.00000000000E+00 -0.00000000000E+00 -0.42292941411E+02  0.42316773190E+02  0.14200000000E+01 0.  1.
       1023    2    1    2    0    0  0.00000000000E+00  0.00000000000E+00 -0.40168191286E+02  0.44872348095E+02  0.20001100779E+02 0.  0.
        -11    1    3    3    0    0  0.99758305935E+01  0.70072663751E+00 -0.19965508856E+02  0.22330019211E+02  0.51100000000E-03 0.  1.
         11    1    3    3    0    0 -0.99758305935E+01 -0.70072663751E+00 -0.20202682430E+02  0.22542328883E+02  0.51100000000E-03 0. -1.
<mgrwt>
<rscale>  0 0.20001101E+02</rscale>
<asrwt>0</asrwt>
<pdfrwt beam="1">  1        4 0.36185825E-03 0.20001101E+02</pdfrwt>
<pdfrwt beam="2">  1       -4 0.65415794E-02 0.20001101E+02</pdfrwt>
<totfact> 0.11740150E+06</totfact>
</mgrwt>
</event>
<event>
 4    1  0.1154861E-006  0.2008984E+02  0.7818608E-02  0.1743547E+00
          4   -1    0    0  501    0  0.00000000000E+00  0.00000000000E+00  0.10574583845E+02  0.10669499684E+02  0.14200000000E+01 0. -1.
         -4   -1    0    0    0  501 -0.00000000000E+00 -0.00000000000E+00 -0.93503972827E+01  0.94576069565E+01  0.14200000000E+01 0.  1.
        -11    1    1    2    0    0  0.57905909006E+01 -0.81700529119E+01 -0.17660222538E+00  0.10015582667E+02  0.51100000000E-03 0. -1.
         11    1    1    2    0    0 -0.57905909006E+01  0.81700529119E+01  0.14007887879E+01  0.10111523973E+02  0.51100000000E-03 0.  1.
<mgrwt>
<rscale>  0 0.20089843E+02</rscale>
<asrwt>0</asrwt>
<pdfrwt beam="1">  1        4 0.16424072E-02 0.20089843E+02</pdfrwt>
<pdfrwt beam="2">  1       -4 0.14540708E-02 0.20089843E+02</pdfrwt>
<totfact> 0.12887942E+06</totfact>
</mgrwt>
</event>
<event>
 4    1  0.1154861E-006  0.2001808E+02  0.7818608E-02  0.1744969E+00
          4   -1    0    0  501    0  0.00000000000E+00  0.00000000000E+00  0.17098269877E+01  0.22225904544E+01  0.14200000000E+01 0. -1.
         -4   -1    0    0    0  501 -0.00000000000E+00 -0.00000000000E+00 -0.50427237678E+02  0.50447226879E+02  0.14200000000E+01 0.  1.
        -11    1    1    2    0    0  0.61277498291E+01 -0.79130656861E+01 -0.24680536957E+02  0.26632589646E+02  0.51100000000E-03 0.  1.
         11    1    1    2    0    0 -0.61277498291E+01  0.79130656861E+01 -0.24036873733E+02  0.26037227688E+02  0.51100000000E-03 0. -1.
<mgrwt>
<rscale>  0 0.20018081E+02</rscale>
<asrwt>0</asrwt>
<pdfrwt beam="1">  1        4 0.30403132E-03 0.20018081E+02</pdfrwt>
<pdfrwt beam="2">  1       -4 0.77990166E-02 0.20018081E+02</pdfrwt>
<totfact> 0.11388610E+06</totfact>
</mgrwt>
</event>
<event>
 5    1  0.1154861E-006  0.2000016E+02  0.7818608E-02  0.1745325E+00
         -4   -1    0    0    0  501 -0.00000000000E+00  0.00000000000E+00  0.24919589438E+01  0.28681456340E+01  0.14200000000E+01 0. -1.
          4   -1    0    0  501    0  0.00000000000E+00 -0.00000000000E+00 -0.36922523337E+02  0.36949819073E+02  0.14200000000E+01 0.  1.
       1023    2    1    2    0    0  0.00000000000E+00  0.00000000000E+00 -0.34430564393E+02  0.39817964707E+02  0.20000163725E+02 0.  0.
        -11    1    3    3    0    0  0.55061940410E+01  0.83476621174E+01 -0.17217594841E+02  0.19910982095E+02  0.51100000000E-03 0. -1.
         11    1    3    3    0    0 -0.55061940410E+01 -0.83476621174E+01 -0.17212969552E+02  0.19906982612E+02  0.51100000000E-03 0.  1.
<mgrwt>
<rscale>  0 0.20000164E+02</rscale>
<asrwt>0</asrwt>
<pdfrwt beam="2">  1        4 0.57114249E-02 0.20000164E+02</pdfrwt>
<pdfrwt beam="1">  1       -4 0.41441544E-03 0.20000164E+02</pdfrwt>
<totfact> 0.11970892E+06</totfact>
</mgrwt>
</event>
<event>
 5    1  0.1154861E-006  0.2000299E+02  0.7818608E-02  0.1745269E+00
         -4   -1    0    0    0  501 -0.00000000000E+00  0.00000000000E+00  0.33936757798E+02  0.33966453006E+02  0.14200000000E+01 0. -1.
          4   -1    0    0  501    0  0.00000000000E+00 -0.00000000000E+00 -0.27436328637E+01  0.30893237594E+01  0.14200000000E+01 0.  1.
       1023    2    1    2    0    0  0.00000000000E+00  0.00000000000E+00  0.31193124934E+02  0.37055776766E+02  0.20002988491E+02 0.  0.
        -11    1    3    3    0    0  0.99673319138E+01  0.80781669624E+00  0.15915353800E+02  0.18796243245E+02  0.51100000000E-03 0.  1.
         11    1    3    3    0    0 -0.99673319138E+01 -0.80781669624E+00  0.15277771134E+02  0.18259533521E+02  0.51100000000E-03 0. -1.
<mgrwt>
<rscale>  0 0.20002988E+02</rscale>
<asrwt>0</asrwt>
<pdfrwt beam="2">  1        4 0.45097320E-03 0.20002988E+02</pdfrwt>
<pdfrwt beam="1">  1       -4 0.52499157E-02 0.20002988E+02</pdfrwt>
<totfact> 0.12098250E+06</totfact>
</mgrwt>
</event>
<event>
 5    1  0.1154861E-006  0.2000013E+02  0.7818608E-02  0.1745325E+00
          4   -1    0    0  501    0  0.00000000000E+00  0.00000000000E+00  0.18912996397E+01  0.23650400265E+01  0.14200000000E+01 0.  1.
         -4   -1    0    0    0  501 -0.00000000000E+00 -0.00000000000E+00 -0.46503558241E+02  0.46525233251E+02  0.14200000000E+01 0. -1.
       1023    2    1    2    0    0  0.00000000000E+00  0.00000000000E+00 -0.44612258601E+02  0.48890273278E+02  0.20000130091E+02 0.  0.
        -11    1    3    3    0    0 -0.88273428794E+01  0.46988427859E+01 -0.22340248725E+02  0.24476270533E+02  0.51100000000E-03 0. -1.
         11    1    3    3    0    0  0.88273428794E+01 -0.46988427859E+01 -0.22272009876E+02  0.24414002745E+02  0.51100000000E-03 0.  1.
<mgrwt>
<rscale>  0 0.20000130E+02</rscale>
<asrwt>0</asrwt>
<pdfrwt beam="1">  1        4 0.32907809E-03 0.20000130E+02</pdfrwt>
<pdfrwt beam="2">  1       -4 0.71925017E-02 0.20000130E+02</pdfrwt>
<totfact> 0.11566990E+06</totfact>
</mgrwt>
</event>
<event>
 5    1  0.1154861E-006  0.2000826E+02  0.7818608E-02  0.1745164E+00
          4   -1    0    0  501    0  0.00000000000E+00  0.00000000000E+00  0.30597923226E+02  0.30630855452E+02  0.14200000000E+01 0. -1.
         -4   -1    0    0    0  501 -0.00000000000E+00 -0.00000000000E+00 -0.30803473201E+01  0.33918932195E+01  0.14200000000E+01 0.  1.
       1023    2    1    2    0    0  0.00000000000E+00  0.00000000000E+00  0.27517575906E+02  0.34022748671E+02  0.20008259381E+02 0.  0.
        -11    1    3    3    0    0 -0.95630232442E+01 -0.29346992085E+01  0.13526023366E+02  0.16823114497E+02  0.51100000000E-03 0.  1.
         11    1    3    3    0    0  0.95630232442E+01  0.29346992085E+01  0.13991552539E+02  0.17199634174E+02  0.51100000000E-03 0. -1.
<mgrwt>
<rscale>  0 0.20008259E+02</rscale>
<asrwt>0</asrwt>
<pdfrwt beam="1">  1        4 0.47338712E-02 0.20008259E+02</pdfrwt>
<pdfrwt beam="2">  1       -4 0.50039789E-03 0.20008259E+02</pdfrwt>
<totfact> 0.12240156E+06</totfact>
</mgrwt>
</event>
<event>
 5    1  0.1154861E-006  0.2000759E+02  0.7818608E-02  0.1745177E+00
         -4   -1    0    0    0  501 -0.00000000000E+00  0.00000000000E+00  0.60552828337E+00  0.15437177533E+01  0.14200000000E+01 0.  1.
          4   -1    0    0  501    0  0.00000000000E+00 -0.00000000000E+00 -0.92180474673E+02  0.92191411264E+02  0.14200000000E+01 0. -1.
       1023    2    1    2    0    0  0.00000000000E+00  0.00000000000E+00 -0.91574946389E+02  0.93735129017E+02  0.20007588703E+02 0.  0.
        -11    1    3    3    0    0  0.99365268235E+01 -0.11561746055E+01 -0.46105090454E+02  0.47177862087E+02  0.51100000000E-03 0. -1.
         11    1    3    3    0    0 -0.99365268235E+01  0.11561746055E+01 -0.45469855935E+02  0.46557266930E+02  0.51100000000E-03 0.  1.
<mgrwt>
<rscale>  0 0.20007589E+02</rscale>
<asrwt>0</asrwt>
<pdfrwt beam="2">  1        4 0.14254615E-01 0.20007589E+02</pdfrwt>
<pdfrwt beam="1">  1       -4 0.16616797E-03 0.20007589E+02</pdfrwt>
<totfact> 0.99758297E+05</totfact>
</mgrwt>
</event>
<event>
 5    1  0.1154861E-006  0.2000222E+02  0.7818608E-02  0.1745284E+00
          4   -1    0    0  501    0  0.00000000000E+00  0.00000000000E+00  0.47224959258E+00  0.14964690701E+01  0.14200000000E+01 0. -1.
         -4   -1    0    0    0  501 -0.00000000000E+00 -0.00000000000E+00 -0.10057963528E+03  0.10058965868E+03  0.14200000000E+01 0.  1.
       1023    2    1    2    0    0  0.00000000000E+00  0.00000000000E+00 -0.10010738569E+03  0.10208612775E+03  0.20002220115E+02 0.  0.
        -11    1    3    3    0    0  0.85470281204E+01  0.51914899475E+01 -0.49351218094E+02  0.50354205238E+02  0.51100000000E-03 0. -1.
         11    1    3    3    0    0 -0.85470281204E+01 -0.51914899475E+01 -0.50756167593E+02  0.51731922510E+02  0.51100000000E-03 0.  1.
<mgrwt>
<rscale>  0 0.20002220E+02</rscale>
<asrwt>0</asrwt>
<pdfrwt beam="1">  1        4 0.15221101E-03 0.20002220E+02</pdfrwt>
<pdfrwt beam="2">  1       -4 0.15553339E-01 0.20002220E+02</pdfrwt>
<totfact> 0.97400923E+05</totfact>
</mgrwt>
</event>
<event>
 5    1  0.1154861E-006  0.2000033E+02  0.7818608E-02  0.1745322E+00
         -4   -1    0    0    0  501 -0.00000000000E+00  0.00000000000E+00  0.63303293002E+00  0.15547124141E+01  0.14200000000E+01 0.  1.
          4   -1    0    0  501    0  0.00000000000E+00 -0.00000000000E+00 -0.90491726028E+02  0.90502866692E+02  0.14200000000E+01 0. -1.
       1023    2    1    2    0    0  0.00000000000E+00  0.00000000000E+00 -0.89858693098E+02  0.92057579106E+02  0.20000328639E+02 0.  0.
        -11    1    3    3    0    0 -0.82571246312E+01 -0.56409998688E+01 -0.45150063177E+02  0.46244234147E+02  0.51100000000E-03 0. -1.
         11    1    3    3    0    0  0.82571246312E+01  0.56409998688E+01 -0.44708629920E+02  0.45813344959E+02  0.51100000000E-03 0.  1.
<mgrwt>
<rscale>  0 0.20000329E+02</rscale>
<asrwt>0</asrwt>
<pdfrwt beam="2">  1        4 0.13993553E-01 0.20000329E+02</pdfrwt>
<pdfrwt beam="1">  1       -4 0.16914515E-03 0.20000329E+02</pdfrwt>
<totfact> 0.10033150E+06</totfact>
</mgrwt>
</event>
<event>
 5    1  0.1154861E-006  0.2000076E+02  0.7818608E-02  0.1745313E+00
         -4   -1    0    0    0  501 -0.00000000000E+00  0.00000000000E+00  0.18968544470E+01  0.23694844994E+01  0.14200000000E+01 0.  1.
          4   -1    0    0  501    0  0.00000000000E+00 -0.00000000000E+00 -0.46397462647E+02  0.46419187197E+02  0.14200000000E+01 0. -1.
       1023    2    1    2    0    0  0.00000000000E+00  0.00000000000E+00 -0.44500608200E+02  0.48788671697E+02  0.20000758880E+02 0.  0.
        -11    1    3    3    0    0  0.95495099220E+01  0.29679975332E+01 -0.22430213993E+02  0.24558433360E+02  0.51100000000E-03 0.  1.
         11    1    3    3    0    0 -0.95495099220E+01 -0.29679975332E+01 -0.22070394207E+02  0.24230238336E+02  0.51100000000E-03 0. -1.
<mgrwt>
<rscale>  0 0.20000759E+02</rscale>
<asrwt>0</asrwt>
<pdfrwt beam="2">  1        4 0.71760977E-02 0.20000759E+02</pdfrwt>
<pdfrwt beam="1">  1       -4 0.32985107E-03 0.20000759E+02</pdfrwt>
<totfact> 0.11570577E+06</totfact>
</mgrwt>
</event>
<event>
 5    1  0.1170890E-006  0.2000232E+02  0.7818608E-02  0.1745282E+00
         -4   -1    0    0    0  501 -0.00000000000E+00  0.00000000000E+00  0.45727345330E+01  0.47881417178E+01  0.14200000000E+01 0. -1.
          4   -1    0    0  501    0  0.00000000000E+00 -0.00000000000E+00 -0.21130687379E+02  0.21178346231E+02  0.14200000000E+01 0.  1.
       1023    2    1    2    0    0  0.00000000000E+00  0.00000000000E+00 -0.16557952846E+02  0.25966487949E+02  0.20002317215E+02 0.  0.
        -11    1    3    3    0    0  0.21300704506E+00 -0.99986499867E+01 -0.83689134991E+01  0.13040593812E+02  0.51100000000E-03 0.  1.
         11    1    3    3    0    0 -0.21300704506E+00  0.99986499867E+01 -0.81890393465E+01  0.12925894137E+02  0.51100000000E-03 0. -1.
<mgrwt>
<rscale>  0 0.20002317E+02</rscale>
<asrwt>0</asrwt>
<pdfrwt beam="2">  1        4 0.32711108E-02 0.20002317E+02</pdfrwt>
<pdfrwt beam="1">  1       -4 0.72373348E-03 0.20002317E+02</pdfrwt>
<totfact> 0.12669025E+06</totfact>
</mgrwt>
</event>
<event>
 4    1  0.1154861E-006  0.2002578E+02  0.7818608E-02  0.1744816E+00
         -4   -1    0    0    0  501 -0.00000000000E+00  0.00000000000E+00  0.40087461357E+01  0.42528161941E+01  0.14200000000E+01 0. -1.
          4   -1    0    0  501    0  0.00000000000E+00 -0.00000000000E+00 -0.24005263261E+02  0.24047225708E+02  0.14200000000E+01 0.  1.
        -11    1    1    2    0    0  0.82294217252E+01 -0.57016997234E+01 -0.10222401225E+02  0.14308397839E+02  0.51100000000E-03 0.  1.
         11    1    1    2    0    0 -0.82294217252E+01  0.57016997234E+01 -0.97741159006E+01  0.13991644062E+02  0.51100000000E-03 0. -1.
<mgrwt>
<rscale>  0 0.20025775E+02</rscale>
<asrwt>0</asrwt>
<pdfrwt beam="2">  1        4 0.37151198E-02 0.20025775E+02</pdfrwt>
<pdfrwt beam="1">  1       -4 0.63873269E-03 0.20025775E+02</pdfrwt>
<totfact> 0.12512683E+06</totfact>
</mgrwt>
</event>
<event>
 5    1  0.1154861E-006  0.2000341E+02  0.7818608E-02  0.1745260E+00
          4   -1    0    0  501    0  0.00000000000E+00  0.00000000000E+00  0.15715975422E+02  0.15779996307E+02  0.14200000000E+01 0. -1.
         -4   -1    0    0    0  501 -0.00000000000E+00 -0.00000000000E+00 -0.62078285335E+01  0.63681657565E+01  0.14200000000E+01 0.  1.
       1023    2    1    2    0    0  0.00000000000E+00  0.00000000000E+00  0.95081468883E+01  0.22148162064E+02  0.20003405349E+02 0.  0.
        -11    1    3    3    0    0 -0.86987194117E+01 -0.49350946380E+01  0.46370133806E+01  0.11023827459E+02  0.51100000000E-03 0. -1.
         11    1    3    3    0    0  0.86987194117E+01  0.49350946380E+01  0.48711335077E+01  0.11124334605E+02  0.51100000000E-03 0.  1.
<mgrwt>
<rscale>  0 0.20003405E+02</rscale>
<asrwt>0</asrwt>
<pdfrwt beam="1">  1        4 0.24351007E-02 0.20003405E+02</pdfrwt>
<pdfrwt beam="2">  1       -4 0.97230887E-03 0.20003405E+02</pdfrwt>
<totfact> 0.12883159E+06</totfact>
</mgrwt>
</event>
<event>
 5    1  0.1193358E-006  0.2000072E+02  0.7818608E-02  0.1745314E+00
         -4   -1    0    0    0  501 -0.00000000000E+00  0.00000000000E+00  0.21169889557E+02  0.21217460354E+02  0.14200000000E+01 0.  1.
          4   -1    0    0  501    0  0.00000000000E+00 -0.00000000000E+00 -0.45631176242E+01  0.47789583020E+01  0.14200000000E+01 0. -1.
       1023    2    1    2    0    0  0.00000000000E+00  0.00000000000E+00  0.16606771933E+02  0.25996418656E+02  0.20000722709E+02 0.  0.
        -11    1    3    3    0    0 -0.35458262402E+01  0.93503403380E+01  0.82071781102E+01  0.12936750788E+02  0.51100000000E-03 0. -1.
         11    1    3    3    0    0  0.35458262402E+01 -0.93503403380E+01  0.83995938229E+01  0.13059667868E+02  0.51100000000E-03 0.  1.
<mgrwt>
<rscale>  0 0.20000723E+02</rscale>
<asrwt>0</asrwt>
<pdfrwt beam="2">  1        4 0.72228051E-03 0.20000723E+02</pdfrwt>
<pdfrwt beam="1">  1       -4 0.32771685E-02 0.20000723E+02</pdfrwt>
<totfact> 0.12669433E+06</totfact>
</mgrwt>
</event>
<event>
 5    1  0.1154861E-006  0.2000046E+02  0.7818608E-02  0.1745319E+00
         -4   -1    0    0    0  501 -0.00000000000E+00  0.00000000000E+00  0.31899942777E+02  0.31931532208E+02  0.14200000000E+01 0. -1.
          4   -1    0    0  501    0  0.00000000000E+00 -0.00000000000E+00 -0.29392028406E+01  0.32642477446E+01  0.14200000000E+01 0.  1.
       1023    2    1    2    0    0  0.00000000000E+00  0.00000000000E+00  0.28960739936E+02  0.35195779953E+02  0.20000461716E+02 0.  0.
        -11    1    3    3    0    0  0.91550097746E+00  0.99581335398E+01  0.14400668509E+02  0.17532307874E+02  0.51100000000E-03 0. -1.
         11    1    3    3    0    0 -0.91550097746E+00 -0.99581335398E+01  0.14560071427E+02  0.17663472078E+02  0.51100000000E-03 0.  1.
<mgrwt>
<rscale>  0 0.20000462E+02</rscale>
<asrwt>0</asrwt>
<pdfrwt beam="2">  1        4 0.47961845E-03 0.20000462E+02</pdfrwt>
<pdfrwt beam="1">  1       -4 0.49351171E-02 0.20000462E+02</pdfrwt>
<totfact> 0.12191783E+06</totfact>
</mgrwt>
</event>
<event>
 4    1  0.1154861E-006  0.2006953E+02  0.7818608E-02  0.1743949E+00
         -4   -1    0    0    0  501 -0.00000000000E+00  0.00000000000E+00  0.40979704837E+00  0.14779491266E+01  0.14200000000E+01 0. -1.
          4   -1    0    0  501    0  0.00000000000E+00 -0.00000000000E+00 -0.10560871230E+03  0.10561825843E+03  0.14200000000E+01 0.  1.
        -11    1    1    2    0    0  0.34967592072E+01  0.93877504116E+01 -0.49491148464E+02  0.50494860721E+02  0.51100000000E-03 0. -1.
         11    1    1    2    0    0 -0.34967592072E+01 -0.93877504116E+01 -0.55707766785E+02  0.56601346832E+02  0.51100000000E-03 0.  1.
<mgrwt>
<rscale>  0 0.20069527E+02</rscale>
<asrwt>0</asrwt>
<pdfrwt beam="2">  1        4 0.16330385E-01 0.20069527E+02</pdfrwt>
<pdfrwt beam="1">  1       -4 0.14594565E-03 0.20069527E+02</pdfrwt>
<totfact> 0.95374705E+05</totfact>
</mgrwt>
</event>
<event>
 5    1  0.1154861E-006  0.2000129E+02  0.7818608E-02  0.1745302E+00
          4   -1    0    0  501    0  0.00000000000E+00  0.00000000000E+00  0.28447912757E+00  0.14482155827E+01  0.14200000000E+01 0. -1.
         -4   -1    0    0    0  501 -0.00000000000E+00 -0.00000000000E+00 -0.11427090680E+03  0.11427972935E+03  0.14200000000E+01 0.  1.
       1023    2    1    2    0    0  0.00000000000E+00  0.00000000000E+00 -0.11398642767E+03  0.11572794493E+03  0.20001288594E+02 0.  0.
        -11    1    3    3    0    0  0.92436440917E+01 -0.38165158740E+01 -0.57260662083E+02  0.58127396054E+02  0.51100000000E-03 0. -1.
         11    1    3    3    0    0 -0.92436440917E+01  0.38165158740E+01 -0.56725765585E+02  0.57600548877E+02  0.51100000000E-03 0.  1.
<mgrwt>
<rscale>  0 0.20001289E+02</rscale>
<asrwt>0</asrwt>
<pdfrwt beam="1">  1        4 0.13396296E-03 0.20001289E+02</pdfrwt>
<pdfrwt beam="2">  1       -4 0.17670324E-01 0.20001289E+02</pdfrwt>
<totfact> 0.93735569E+05</totfact>
</mgrwt>
</event>
<event>
 5    1  0.1154861E-006  0.2000280E+02  0.7818608E-02  0.1745272E+00
          4   -1    0    0  501    0  0.00000000000E+00  0.00000000000E+00  0.80459077879E+01  0.81702528805E+01  0.14200000000E+01 0. -1.
         -4   -1    0    0    0  501 -0.00000000000E+00 -0.00000000000E+00 -0.12170892426E+02  0.12253449410E+02  0.14200000000E+01 0.  1.
       1023    2    1    2    0    0  0.00000000000E+00  0.00000000000E+00 -0.41249846378E+01  0.20423702290E+02  0.20002802728E+02 0.  0.
        -11    1    3    3    0    0 -0.49203371253E+01 -0.87067472182E+01 -0.19560664475E+01  0.10190356262E+02  0.51100000000E-03 0.  1.
         11    1    3    3    0    0  0.49203371253E+01  0.87067472182E+01 -0.21689181903E+01  0.10233346028E+02  0.51100000000E-03 0. -1.
<mgrwt>
<rscale>  0 0.20002803E+02</rscale>
<asrwt>0</asrwt>
<pdfrwt beam="1">  1        4 0.12537475E-02 0.20002803E+02</pdfrwt>
<pdfrwt beam="2">  1       -4 0.18883605E-02 0.20002803E+02</pdfrwt>
<totfact> 0.12985128E+06</totfact>
</mgrwt>
</event>
<event>
 4    1  0.1154861E-006  0.2001859E+02  0.7818608E-02  0.1744959E+00
         -4   -1    0    0    0  501 -0.00000000000E+00  0.00000000000E+00  0.15307185917E+02  0.15372909311E+02  0.14200000000E+01 0.  1.
          4   -1    0    0  501    0  0.00000000000E+00 -0.00000000000E+00 -0.63871486449E+01  0.65430931379E+01  0.14200000000E+01 0. -1.
        -11    1    1    2    0    0  0.83998809076E+01  0.54419345731E+01  0.43334152876E+01  0.10906472366E+02  0.51100000000E-03 0.  1.
         11    1    1    2    0    0 -0.83998809076E+01 -0.54419345731E+01  0.45866219844E+01  0.11009530083E+02  0.51100000000E-03 0. -1.
<mgrwt>
<rscale>  0 0.20018594E+02</rscale>
<asrwt>0</asrwt>
<pdfrwt beam="2">  1        4 0.99968963E-03 0.20018594E+02</pdfrwt>
<pdfrwt beam="1">  1       -4 0.23720031E-02 0.20018594E+02</pdfrwt>
<totfact> 0.12876673E+06</totfact>
</mgrwt>
</event>
<event>
 5    1  0.1154861E-006  0.2000286E+02  0.7818608E-02  0.1745271E+00
         -4   -1    0    0    0  501 -0.00000000000E+00  0.00000000000E+00  0.10356454147E+03  0.10357427600E+03  0.14200000000E+01 0.  1.
          4   -1    0    0  501    0  0.00000000000E+00 -0.00000000000E+00 -0.42878049639E+00  0.14833248849E+01  0.14200000000E+01 0. -1.
       1023    2    1    2    0    0  0.00000000000E+00  0.00000000000E+00  0.10313576097E+03  0.10505760089E+03  0.20002857622E+02 0.  0.
        -11    1    3    3    0    0 -0.54229384614E+00 -0.99865865638E+01  0.51834872097E+02  0.52790907923E+02  0.51100000000E-03 0.  1.
         11    1    3    3    0    0  0.54229384614E+00  0.99865865638E+01  0.51300888874E+02  0.52266692963E+02  0.51100000000E-03 0. -1.
<mgrwt>
<rscale>  0 0.20002858E+02</rscale>
<asrwt>0</asrwt>
<pdfrwt beam="2">  1        4 0.14783377E-03 0.20002858E+02</pdfrwt>
<pdfrwt beam="1">  1       -4 0.16014882E-01 0.20002858E+02</pdfrwt>
<totfact> 0.96567992E+05</totfact>
</mgrwt>
</event>
<event>
 5    1  0.1182626E-006  0.2000067E+02  0.7818608E-02  0.1745315E+00
         -4   -1    0    0    0  501 -0.00000000000E+00  0.00000000000E+00  0.15992626239E+02  0.16055544028E+02  0.14200000000E+01 0. -1.
          4   -1    0    0  501    0  0.00000000000E+00 -0.00000000000E+00 -0.60963473582E+01  0.62595408068E+01  0.14200000000E+01 0.  1.
       1023    2    1    2    0    0  0.00000000000E+00  0.00000000000E+00  0.98962788811E+01  0.22315084835E+02  0.20000666876E+02 0.  0.
        -11    1    3    3    0    0  0.97523300317E+01 -0.22129174620E+01  0.49944634564E+01  0.11178086161E+02  0.51100000000E-03 0.  1.
         11    1    3    3    0    0 -0.97523300317E+01  0.22129174620E+01  0.49018154247E+01  0.11136998674E+02  0.51100000000E-03 0. -1.
<mgrwt>
<rscale>  0 0.20000667E+02</rscale>
<asrwt>0</asrwt>
<pdfrwt beam="2">  1        4 0.95529277E-03 0.20000667E+02</pdfrwt>
<pdfrwt beam="1">  1       -4 0.24777972E-02 0.20000667E+02</pdfrwt>
<totfact> 0.12877102E+06</totfact>
</mgrwt>
</event>
<event>
 4    1  0.1154861E-006  0.2001663E+02  0.7818608E-02  0.1744998E+00
          4   -1    0    0  501    0  0.00000000000E+00  0.00000000000E+00  0.25397647147E+02  0.25437312763E+02  0.14200000000E+01 0.  1.
         -4   -1    0    0    0  501 -0.00000000000E+00 -0.00000000000E+00 -0.37718570737E+01  0.40302984734E+01  0.14200000000E+01 0. -1.
        -11    1    1    2    0    0 -0.83683057289E+01  0.54891998110E+01  0.10694449770E+02  0.14646880606E+02  0.51100000000E-03 0. -1.
         11    1    1    2    0    0  0.83683057289E+01 -0.54891998110E+01  0.10931340304E+02  0.14820730631E+02  0.51100000000E-03 0.  1.
<mgrwt>
<rscale>  0 0.20016626E+02</rscale>
<asrwt>0</asrwt>
<pdfrwt beam="1">  1        4 0.39302616E-02 0.20016626E+02</pdfrwt>
<pdfrwt beam="2">  1       -4 0.60321701E-03 0.20016626E+02</pdfrwt>
<totfact> 0.12462574E+06</totfact>
</mgrwt>
</event>
<event>
 5    1  0.1186112E-006  0.2000129E+02  0.7818608E-02  0.1745302E+00
         -4   -1    0    0    0  501 -0.00000000000E+00  0.00000000000E+00  0.51564059418E+01  0.53483569661E+01  0.14200000000E+01 0.  1.
          4   -1    0    0  501    0  0.00000000000E+00 -0.00000000000E+00 -0.18822262545E+02  0.18875750774E+02  0.14200000000E+01 0. -1.
       1023    2    1    2    0    0  0.00000000000E+00  0.00000000000E+00 -0.13665856603E+02  0.24224107741E+02  0.20001293937E+02 0.  0.
        -11    1    3    3    0    0  0.39109658798E+01  0.92041920753E+01 -0.68469298482E+01  0.12119952742E+02  0.51100000000E-03 0. -1.
         11    1    3    3    0    0 -0.39109658798E+01 -0.92041920753E+01 -0.68189267547E+01  0.12104154998E+02  0.51100000000E-03 0.  1.
<mgrwt>
<rscale>  0 0.20001294E+02</rscale>
<asrwt>0</asrwt>
<pdfrwt beam="2">  1        4 0.29146126E-02 0.20001294E+02</pdfrwt>
<pdfrwt beam="1">  1       -4 0.81217317E-03 0.20001294E+02</pdfrwt>
<totfact> 0.12767454E+06</totfact>
</mgrwt>
</event>
<event>
 5    1  0.1154861E-006  0.2000943E+02  0.7818608E-02  0.1745141E+00
         -4   -1    0    0    0  501 -0.00000000000E+00  0.00000000000E+00  0.89709198974E+02  0.89720436805E+02  0.14200000000E+01 0.  1.
          4   -1    0    0  501    0  0.00000000000E+00 -0.00000000000E+00 -0.64799251761E+00  0.15608633197E+01  0.14200000000E+01 0. -1.
       1023    2    1    2    0    0  0.00000000000E+00  0.00000000000E+00  0.89061206456E+02  0.91281300125E+02  0.20009429204E+02 0.  0.
        -11    1    3    3    0    0  0.89176075215E+01 -0.45319657268E+01  0.43716116275E+02  0.44845972613E+02  0.51100000000E-03 0. -1.
         11    1    3    3    0    0 -0.89176075215E+01  0.45319657268E+01  0.45345090182E+02  0.46435327512E+02  0.51100000000E-03 0.  1.
<mgrwt>
<rscale>  0 0.20009429E+02</rscale>
<asrwt>0</asrwt>
<pdfrwt beam="2">  1        4 0.17077633E-03 0.20009429E+02</pdfrwt>
<pdfrwt beam="1">  1       -4 0.13872509E-01 0.20009429E+02</pdfrwt>
<totfact> 0.10047383E+06</totfact>
</mgrwt>
</event>
<event>
 5    1  0.1154861E-006  0.2000008E+02  0.7818608E-02  0.1745326E+00
         -4   -1    0    0    0  501 -0.00000000000E+00  0.00000000000E+00  0.45695943636E+02  0.45718001539E+02  0.14200000000E+01 0.  1.
          4   -1    0    0  501    0  0.00000000000E+00 -0.00000000000E+00 -0.19329941054E+01  0.23985133336E+01  0.14200000000E+01 0. -1.
       1023    2    1    2    0    0  0.00000000000E+00  0.00000000000E+00  0.43762949530E+02  0.48116514873E+02  0.20000081298E+02 0.  0.
        -11    1    3    3    0    0  0.74928497133E+01  0.66225331479E+01  0.21901689767E+02  0.24076643392E+02  0.51100000000E-03 0. -1.
         11    1    3    3    0    0 -0.74928497133E+01 -0.66225331479E+01  0.21861259763E+02  0.24039871481E+02  0.51100000000E-03 0.  1.
<mgrwt>
<rscale>  0 0.20000081E+02</rscale>
<asrwt>0</asrwt>
<pdfrwt beam="2">  1        4 0.33488962E-03 0.20000081E+02</pdfrwt>
<pdfrwt beam="1">  1       -4 0.70676515E-02 0.20000081E+02</pdfrwt>
<totfact> 0.11600070E+06</totfact>
</mgrwt>
</event>
<event>
 5    1  0.1154861E-006  0.2000035E+02  0.7818608E-02  0.1745321E+00
          4   -1    0    0  501    0  0.00000000000E+00  0.00000000000E+00  0.11444268497E+01  0.18237633658E+01  0.14200000000E+01 0. -1.
         -4   -1    0    0    0  501 -0.00000000000E+00 -0.00000000000E+00 -0.66694868975E+02  0.66709983867E+02  0.14200000000E+01 0.  1.
       1023    2    1    2    0    0  0.00000000000E+00  0.00000000000E+00 -0.65550442125E+02  0.68533747233E+02  0.20000351172E+02 0.  0.
        -11    1    3    3    0    0  0.22067934172E+01  0.97535913591E+01 -0.32665253452E+02  0.34161692946E+02  0.51100000000E-03 0.  1.
         11    1    3    3    0    0 -0.22067934172E+01 -0.97535913591E+01 -0.32885188673E+02  0.34372054287E+02  0.51100000000E-03 0. -1.
<mgrwt>
<rscale>  0 0.20000351E+02</rscale>
<asrwt>0</asrwt>
<pdfrwt beam="1">  1        4 0.22948506E-03 0.20000351E+02</pdfrwt>
<pdfrwt beam="2">  1       -4 0.10314166E-01 0.20000351E+02</pdfrwt>
<totfact> 0.10802491E+06</totfact>
</mgrwt>
</event>
<event>
 5    1  0.1154861E-006  0.2000053E+02  0.7818608E-02  0.1745317E+00
         -4   -1    0    0    0  501 -0.00000000000E+00  0.00000000000E+00  0.65313060008E+01  0.66838879461E+01  0.14200000000E+01 0. -1.
          4   -1    0    0  501    0  0.00000000000E+00 -0.00000000000E+00 -0.14948285293E+02  0.15015579683E+02  0.14200000000E+01 0.  1.
       1023    2    1    2    0    0  0.00000000000E+00  0.00000000000E+00 -0.84169792924E+01  0.21699467629E+02  0.20000533867E+02 0.  0.
        -11    1    3    3    0    0  0.86976097489E+01 -0.49352057412E+01 -0.41804604987E+01  0.10838861624E+02  0.51100000000E-03 0.  1.
         11    1    3    3    0    0 -0.86976097489E+01  0.49352057412E+01 -0.42365187937E+01  0.10860606005E+02  0.51100000000E-03 0. -1.
<mgrwt>
<rscale>  0 0.20000534E+02</rscale>
<asrwt>0</asrwt>
<pdfrwt beam="2">  1        4 0.23166498E-02 0.20000534E+02</pdfrwt>
<pdfrwt beam="1">  1       -4 0.10217299E-02 0.20000534E+02</pdfrwt>
<totfact> 0.12913008E+06</totfact>
</mgrwt>
</event>
<event>
 5    1  0.1154861E-006  0.2000024E+02  0.7818608E-02  0.1745323E+00
         -4   -1    0    0    0  501 -0.00000000000E+00  0.00000000000E+00  0.81911208185E+00  0.16393122346E+01  0.14200000000E+01 0. -1.
          4   -1    0    0  501    0  0.00000000000E+00 -0.00000000000E+00 -0.80526364771E+02  0.80538883921E+02  0.14200000000E+01 0.  1.
       1023    2    1    2    0    0  0.00000000000E+00  0.00000000000E+00 -0.79707252689E+02  0.82178196156E+02  0.20000244802E+02 0.  0.
        -11    1    3    3    0    0  0.49563657709E+01 -0.86854243906E+01 -0.39923509888E+02  0.41156880354E+02  0.51100000000E-03 0.  1.
         11    1    3    3    0    0 -0.49563657709E+01  0.86854243906E+01 -0.39783742801E+02  0.41021315801E+02  0.51100000000E-03 0. -1.
<mgrwt>
<rscale>  0 0.20000245E+02</rscale>
<asrwt>0</asrwt>
<pdfrwt beam="2">  1        4 0.12452723E-01 0.20000245E+02</pdfrwt>
<pdfrwt beam="1">  1       -4 0.19007264E-03 0.20000245E+02</pdfrwt>
<totfact> 0.10340283E+06</totfact>
</mgrwt>
</event>
<event>
 5    1  0.1154861E-006  0.2000899E+02  0.7818608E-02  0.1745149E+00
         -4   -1    0    0    0  501 -0.00000000000E+00  0.00000000000E+00  0.15577580015E+02  0.15642167341E+02  0.14200000000E+01 0. -1.
          4   -1    0    0  501    0  0.00000000000E+00 -0.00000000000E+00 -0.62677871447E+01  0.64266286412E+01  0.14200000000E+01 0.  1.
       1023    2    1    2    0    0  0.00000000000E+00  0.00000000000E+00  0.93097928702E+01  0.22068795982E+02  0.20008985802E+02 0.  0.
        -11    1    3    3    0    0 -0.20059145115E+01  0.97985336974E+01  0.43964158642E+01  0.10925357127E+02  0.51100000000E-03 0.  1.
         11    1    3    3    0    0  0.20059145115E+01 -0.97985336974E+01  0.49133770061E+01  0.11143438855E+02  0.51100000000E-03 0. -1.
<mgrwt>
<rscale>  0 0.20008986E+02</rscale>
<asrwt>0</asrwt>
<pdfrwt beam="2">  1        4 0.98146178E-03 0.20008986E+02</pdfrwt>
<pdfrwt beam="1">  1       -4 0.24137376E-02 0.20008986E+02</pdfrwt>
<totfact> 0.12880427E+06</totfact>
</mgrwt>
</event>
<event>
 5    1  0.1154861E-006  0.2000051E+02  0.7818608E-02  0.1745318E+00
          4   -1    0    0  501    0  0.00000000000E+00  0.00000000000E+00  0.61585005240E+00  0.15477956219E+01  0.14200000000E+01 0.  1.
         -4   -1    0    0    0  501 -0.00000000000E+00 -0.00000000000E+00 -0.91501499582E+02  0.91512517317E+02  0.14200000000E+01 0. -1.
       1023    2    1    2    0    0  0.00000000000E+00  0.00000000000E+00 -0.90885649530E+02  0.93060312939E+02  0.20000513841E+02 0.  0.
        -11    1    3    3    0    0  0.65534654862E+01 -0.75534368334E+01 -0.45689925724E+02  0.46771483094E+02  0.51100000000E-03 0. -1.
         11    1    3    3    0    0 -0.65534654862E+01  0.75534368334E+01 -0.45195723806E+02  0.46288829846E+02  0.51100000000E-03 0.  1.
<mgrwt>
<rscale>  0 0.20000514E+02</rscale>
<asrwt>0</asrwt>
<pdfrwt beam="1">  1        4 0.16728187E-03 0.20000514E+02</pdfrwt>
<pdfrwt beam="2">  1       -4 0.14149683E-01 0.20000514E+02</pdfrwt>
<totfact> 0.10002957E+06</totfact>
</mgrwt>
</event>
<event>
 4    1  0.1154861E-006  0.2015945E+02  0.7818608E-02  0.1742176E+00
         -4   -1    0    0    0  501 -0.00000000000E+00  0.00000000000E+00  0.59980902269E+01  0.61638856551E+01  0.14200000000E+01 0. -1.
          4   -1    0    0  501    0  0.00000000000E+00 -0.00000000000E+00 -0.16511266681E+02  0.16572215525E+02  0.14200000000E+01 0.  1.
        -11    1    1    2    0    0 -0.47836292025E+01  0.88426149903E+01 -0.44387048890E+01  0.10989861217E+02  0.51100000000E-03 0.  1.
         11    1    1    2    0    0  0.47836292025E+01 -0.88426149903E+01 -0.60744715646E+01  0.11746239963E+02  0.51100000000E-03 0. -1.
<mgrwt>
<rscale>  0 0.20159450E+02</rscale>
<asrwt>0</asrwt>
<pdfrwt beam="2">  1        4 0.25576367E-02 0.20159450E+02</pdfrwt>
<pdfrwt beam="1">  1       -4 0.94022499E-03 0.20159450E+02</pdfrwt>
<totfact> 0.12647088E+06</totfact>
</mgrwt>
</event>
<event>
 5    1  0.1211230E-006  0.2000095E+02  0.7818608E-02  0.1745309E+00
         -4   -1    0    0    0  501 -0.00000000000E+00  0.00000000000E+00  0.19846978660E+02  0.19897712480E+02  0.14200000000E+01 0.  1.
          4   -1    0    0  501    0  0.00000000000E+00 -0.00000000000E+00 -0.48805427023E+01  0.50829220995E+01  0.14200000000E+01 0. -1.
       1023    2    1    2    0    0  0.00000000000E+00  0.00000000000E+00  0.14966435958E+02  0.24980634579E+02  0.20000947445E+02 0.  0.
        -11    1    3    3    0    0 -0.24243892523E+01  0.97019391906E+01  0.75640363555E+01  0.12538737319E+02  0.51100000000E-03 0. -1.
         11    1    3    3    0    0  0.24243892523E+01 -0.97019391906E+01  0.74023996021E+01  0.12441897260E+02  0.51100000000E-03 0.  1.
<mgrwt>
<rscale>  0 0.20000947E+02</rscale>
<asrwt>0</asrwt>
<pdfrwt beam="2">  1        4 0.77032298E-03 0.20000947E+02</pdfrwt>
<pdfrwt beam="1">  1       -4 0.30728515E-02 0.20000947E+02</pdfrwt>
<totfact> 0.12725449E+06</totfact>
</mgrwt>
</event>
<event>
 5    1  0.1154861E-006  0.2000689E+02  0.7818608E-02  0.1745191E+00
         -4   -1    0    0    0  501 -0.00000000000E+00  0.00000000000E+00  0.70929606605E+01  0.72337052007E+01  0.14200000000E+01 0.  1.
          4   -1    0    0  501    0  0.00000000000E+00 -0.00000000000E+00 -0.13792052885E+02  0.13864960251E+02  0.14200000000E+01 0. -1.
       1023    2    1    2    0    0  0.00000000000E+00  0.00000000000E+00 -0.66990922242E+01  0.21098665452E+02  0.20006894992E+02 0.  0.
        -11    1    3    3    0    0 -0.99865745172E+01 -0.58001424013E+00 -0.33183614869E+01  0.10539431215E+02  0.51100000000E-03 0. -1.
         11    1    3    3    0    0  0.99865745172E+01  0.58001424013E+00 -0.33807307372E+01  0.10559234238E+02  0.51100000000E-03 0.  1.
<mgrwt>
<rscale>  0 0.20006895E+02</rscale>
<asrwt>0</asrwt>
<pdfrwt beam="2">  1        4 0.21382890E-02 0.20006895E+02</pdfrwt>
<pdfrwt beam="1">  1       -4 0.11076595E-02 0.20006895E+02</pdfrwt>
<totfact> 0.12939828E+06</totfact>
</mgrwt>
</event>
<event>
 5    1  0.1154861E-006  0.2000621E+02  0.7818608E-02  0.1745205E+00
         -4   -1    0    0    0  501 -0.00000000000E+00  0.00000000000E+00  0.31541852548E+02  0.31573800249E+02  0.14200000000E+01 0.  1.
          4   -1    0    0  501    0  0.00000000000E+00 -0.00000000000E+00 -0.29781186604E+01  0.32993318650E+01  0.14200000000E+01 0. -1.
       1023    2    1    2    0    0  0.00000000000E+00  0.00000000000E+00  0.28563733887E+02  0.34873132114E+02  0.20006210282E+02 0.  0.
        -11    1    3    3    0    0 -0.46956471443E+01  0.88319133894E+01  0.14458910982E+02  0.17581578520E+02  0.51100000000E-03 0. -1.
         11    1    3    3    0    0  0.46956471443E+01 -0.88319133894E+01  0.14104822905E+02  0.17291553593E+02  0.51100000000E-03 0.  1.
<mgrwt>
<rscale>  0 0.20006210E+02</rscale>
<asrwt>0</asrwt>
<pdfrwt beam="2">  1        4 0.48533831E-03 0.20006210E+02</pdfrwt>
<pdfrwt beam="1">  1       -4 0.48797590E-02 0.20006210E+02</pdfrwt>
<totfact> 0.12200559E+06</totfact>
</mgrwt>
</event>
<event>
 5    1  0.1154861E-006  0.2000003E+02  0.7818608E-02  0.1745327E+00
         -4   -1    0    0    0  501 -0.00000000000E+00  0.00000000000E+00  0.11751309440E+03  0.11752167356E+03  0.14200000000E+01 0.  1.
          4   -1    0    0  501    0  0.00000000000E+00 -0.00000000000E+00 -0.24388765403E+00  0.14407918614E+01  0.14200000000E+01 0. -1.
       1023    2    1    2    0    0  0.00000000000E+00  0.00000000000E+00  0.11726920675E+03  0.11896246542E+03  0.20000033185E+02 0.  0.
        -11    1    3    3    0    0 -0.70345865026E+01  0.71073836782E+01  0.58606971981E+02  0.59453994610E+02  0.51100000000E-03 0. -1.
         11    1    3    3    0    0  0.70345865026E+01 -0.71073836782E+01  0.58662234764E+02  0.59508470807E+02  0.51100000000E-03 0.  1.
<mgrwt>
<rscale>  0 0.20000033E+02</rscale>
<asrwt>0</asrwt>
<pdfrwt beam="2">  1        4 0.13025063E-03 0.20000033E+02</pdfrwt>
<pdfrwt beam="1">  1       -4 0.18171672E-01 0.20000033E+02</pdfrwt>
<totfact> 0.92919853E+05</totfact>
</mgrwt>
</event>
<event>
 5    1  0.1212212E-006  0.2000097E+02  0.7818608E-02  0.1745309E+00
         -4   -1    0    0    0  501 -0.00000000000E+00  0.00000000000E+00  0.14463583236E+02  0.14533122170E+02  0.14200000000E+01 0.  1.
          4   -1    0    0  501    0  0.00000000000E+00 -0.00000000000E+00 -0.67544626284E+01  0.69021131111E+01  0.14200000000E+01 0. -1.
       1023    2    1    2    0    0  0.00000000000E+00  0.00000000000E+00  0.77091206071E+01  0.21435235281E+02  0.20000969252E+02 0.  0.
        -11    1    3    3    0    0  0.95053833038E+01 -0.31072121578E+01  0.37997735019E+01  0.10697913725E+02  0.51100000000E-03 0.  1.
         11    1    3    3    0    0 -0.95053833038E+01  0.31072121578E+01  0.39093471052E+01  0.10737321556E+02  0.51100000000E-03 0. -1.
<mgrwt>
<rscale>  0 0.20000969E+02</rscale>
<asrwt>0</asrwt>
<pdfrwt beam="2">  1        4 0.10558550E-02 0.20000969E+02</pdfrwt>
<pdfrwt beam="1">  1       -4 0.22418735E-02 0.20000969E+02</pdfrwt>
<totfact> 0.12927879E+06</totfact>
</mgrwt>
</event>
<event>
 5    1  0.1154861E-006  0.2000235E+02  0.7818608E-02  0.1745281E+00
          4   -1    0    0  501    0  0.00000000000E+00  0.00000000000E+00  0.70214148534E+01  0.71635652118E+01  0.14200000000E+01 0.  1.
         -4   -1    0    0    0  501 -0.00000000000E+00 -0.00000000000E+00 -0.13924112142E+02  0.13996331625E+02  0.14200000000E+01 0. -1.
       1023    2    1    2    0    0  0.00000000000E+00  0.00000000000E+00 -0.69026972890E+01  0.21159896837E+02  0.20002349969E+02 0.  0.
        -11    1    3    3    0    0 -0.75394412653E+01  0.65711560125E+01 -0.34351361083E+01  0.10574659629E+02  0.51100000000E-03 0.  1.
         11    1    3    3    0    0  0.75394412653E+01 -0.65711560125E+01 -0.34675611807E+01  0.10585237207E+02  0.51100000000E-03 0. -1.
<mgrwt>
<rscale>  0 0.20002350E+02</rscale>
<asrwt>0</asrwt>
<pdfrwt beam="1">  1        4 0.10967077E-02 0.20002350E+02</pdfrwt>
<pdfrwt beam="2">  1       -4 0.21586611E-02 0.20002350E+02</pdfrwt>
<totfact> 0.12942222E+06</totfact>
</mgrwt>
</event>
<event>
 5    1  0.1154861E-006  0.2000324E+02  0.7818608E-02  0.1745264E+00
          4   -1    0    0  501    0  0.00000000000E+00  0.00000000000E+00  0.13649634275E+01  0.19696510245E+01  0.14200000000E+01 0.  1.
         -4   -1    0    0    0  501 -0.00000000000E+00 -0.00000000000E+00 -0.59381647491E+02  0.59398623375E+02  0.14200000000E+01 0. -1.
       1023    2    1    2    0    0  0.00000000000E+00  0.00000000000E+00 -0.58016684064E+02  0.61368274399E+02  0.20003236562E+02 0.  0.
        -11    1    3    3    0    0 -0.47934664538E+01 -0.87771950000E+01 -0.29395134055E+02  0.31049804816E+02  0.51100000000E-03 0.  1.
         11    1    3    3    0    0  0.47934664538E+01  0.87771950000E+01 -0.28621550009E+02  0.30318469584E+02  0.51100000000E-03 0. -1.
<mgrwt>
<rscale>  0 0.20003237E+02</rscale>
<asrwt>0</asrwt>
<pdfrwt beam="1">  1        4 0.25781469E-03 0.20003237E+02</pdfrwt>
<pdfrwt beam="2">  1       -4 0.91834567E-02 0.20003237E+02</pdfrwt>
<totfact> 0.11063032E+06</totfact>
</mgrwt>
</event>
<event>
 5    1  0.1154861E-006  0.2000031E+02  0.7818608E-02  0.1745322E+00
          4   -1    0    0  501    0  0.00000000000E+00  0.00000000000E+00  0.68677434151E+01  0.70130093124E+01  0.14200000000E+01 0. -1.
         -4   -1    0    0    0  501 -0.00000000000E+00 -0.00000000000E+00 -0.14227903472E+02  0.14298588644E+02  0.14200000000E+01 0.  1.
       1023    2    1    2    0    0  0.00000000000E+00  0.00000000000E+00 -0.73601600572E+01  0.21311597957E+02  0.20000306282E+02 0.  0.
        -11    1    3    3    0    0  0.77164147571E+01 -0.63608170411E+01 -0.36838401925E+01  0.10657097586E+02  0.51100000000E-03 0. -1.
         11    1    3    3    0    0 -0.77164147571E+01  0.63608170411E+01 -0.36763198646E+01  0.10654500370E+02  0.51100000000E-03 0.  1.
<mgrwt>
<rscale>  0 0.20000306E+02</rscale>
<asrwt>0</asrwt>
<pdfrwt beam="1">  1        4 0.10731875E-02 0.20000306E+02</pdfrwt>
<pdfrwt beam="2">  1       -4 0.22055198E-02 0.20000306E+02</pdfrwt>
<totfact> 0.12936004E+06</totfact>
</mgrwt>
</event>
<event>
 4    1  0.1154861E-006  0.2001887E+02  0.7818608E-02  0.1744953E+00
          4   -1    0    0  501    0  0.00000000000E+00  0.00000000000E+00  0.32114521461E+01  0.35113850382E+01  0.14200000000E+01 0. -1.
         -4   -1    0    0    0  501 -0.00000000000E+00 -0.00000000000E+00 -0.29487714365E+02  0.29521885076E+02  0.14200000000E+01 0.  1.
        -11    1    1    2    0    0  0.62006908987E+01 -0.78524150031E+01 -0.12672124695E+02  0.16145950996E+02  0.51100000000E-03 0. -1.
         11    1    1    2    0    0 -0.62006908987E+01  0.78524150031E+01 -0.13604137523E+02  0.16887319118E+02  0.51100000000E-03 0.  1.
<mgrwt>
<rscale>  0 0.20018866E+02</rscale>
<asrwt>0</asrwt>
<pdfrwt beam="1">  1        4 0.51976986E-03 0.20018866E+02</pdfrwt>
<pdfrwt beam="2">  1       -4 0.45622715E-02 0.20018866E+02</pdfrwt>
<totfact> 0.12276508E+06</totfact>
</mgrwt>
</event>
<event>
 4    1  0.1154861E-006  0.2002476E+02  0.7818608E-02  0.1744836E+00
         -4   -1    0    0    0  501 -0.00000000000E+00  0.00000000000E+00  0.46950083568E+02  0.46971552530E+02  0.14200000000E+01 0. -1.
          4   -1    0    0  501    0  0.00000000000E+00 -0.00000000000E+00 -0.18746364741E+01  0.23517359354E+01  0.14200000000E+01 0.  1.
        -11    1    1    2    0    0  0.22835533101E+01 -0.97396180654E+01  0.21513418250E+02  0.23725554595E+02  0.51100000000E-03 0. -1.
         11    1    1    2    0    0 -0.22835533101E+01  0.97396180654E+01  0.23562028845E+02  0.25597733871E+02  0.51100000000E-03 0.  1.
<mgrwt>
<rscale>  0 0.20024756E+02</rscale>
<asrwt>0</asrwt>
<pdfrwt beam="2">  1        4 0.32675704E-03 0.20024756E+02</pdfrwt>
<pdfrwt beam="1">  1       -4 0.72614410E-02 0.20024756E+02</pdfrwt>
<totfact> 0.11519974E+06</totfact>
</mgrwt>
</event>
<event>
 5    1  0.1154861E-006  0.2000029E+02  0.7818608E-02  0.1745322E+00
          4   -1    0    0  501    0  0.00000000000E+00  0.00000000000E+00  0.13642802462E+01  0.19691776431E+01  0.14200000000E+01 0. -1.
         -4   -1    0    0    0  501 -0.00000000000E+00 -0.00000000000E+00 -0.59384587173E+02  0.59401562216E+02  0.14200000000E+01 0.  1.
       1023    2    1    2    0    0  0.00000000000E+00  0.00000000000E+00 -0.58020306927E+02  0.61370739859E+02  0.20000292373E+02 0.  0.
        -11    1    3    3    0    0 -0.51577432412E+01  0.85674062064E+01 -0.28971456702E+02  0.30648785753E+02  0.51100000000E-03 0. -1.
         11    1    3    3    0    0  0.51577432412E+01 -0.85674062064E+01 -0.29048850225E+02  0.30721954106E+02  0.51100000000E-03 0.  1.
<mgrwt>
<rscale>  0 0.20000292E+02</rscale>
<asrwt>0</asrwt>
<pdfrwt beam="1">  1        4 0.25772566E-03 0.20000292E+02</pdfrwt>
<pdfrwt beam="2">  1       -4 0.91839250E-02 0.20000292E+02</pdfrwt>
<totfact> 0.11066214E+06</totfact>
</mgrwt>
</event>
<event>
 5    1  0.1208360E-006  0.2000193E+02  0.7818608E-02  0.1745290E+00
         -4   -1    0    0    0  501 -0.00000000000E+00  0.00000000000E+00  0.82591516607E+01  0.83803332961E+01  0.14200000000E+01 0.  1.
          4   -1    0    0  501    0  0.00000000000E+00 -0.00000000000E+00 -0.11858078413E+02  0.11942797982E+02  0.14200000000E+01 0. -1.
       1023    2    1    2    0    0  0.00000000000E+00  0.00000000000E+00 -0.35989267522E+01  0.20323131278E+02  0.20001934686E+02 0.  0.
        -11    1    3    3    0    0 -0.44022967252E+00  0.99903303957E+01 -0.19389410431E+01  0.10186265077E+02  0.51100000000E-03 0.  1.
         11    1    3    3    0    0  0.44022967252E+00 -0.99903303957E+01 -0.16599857090E+01  0.10136866202E+02  0.51100000000E-03 0. -1.
<mgrwt>
<rscale>  0 0.20001935E+02</rscale>
<asrwt>0</asrwt>
<pdfrwt beam="2">  1        4 0.18401583E-02 0.20001935E+02</pdfrwt>
<pdfrwt beam="1">  1       -4 0.12864773E-02 0.20001935E+02</pdfrwt>
<totfact> 0.12992248E+06</totfact>
</mgrwt>
</event>
<event>
 5    1  0.1154861E-006  0.2000065E+02  0.7818608E-02  0.1745315E+00
         -4   -1    0    0    0  501 -0.00000000000E+00  0.00000000000E+00  0.30230971571E+02  0.30264303100E+02  0.14200000000E+01 0. -1.
          4   -1    0    0  501    0  0.00000000000E+00 -0.00000000000E+00 -0.31188174661E+01  0.34268677224E+01  0.14200000000E+01 0.  1.
       1023    2    1    2    0    0  0.00000000000E+00  0.00000000000E+00  0.27112154105E+02  0.33691170822E+02  0.20000652269E+02 0.  0.
        -11    1    3    3    0    0  0.48901520322E+01  0.87231145415E+01  0.13580390507E+02  0.16865151075E+02  0.51100000000E-03 0.  1.
         11    1    3    3    0    0 -0.48901520322E+01 -0.87231145415E+01  0.13531763598E+02  0.16826019747E+02  0.51100000000E-03 0. -1.
<mgrwt>
<rscale>  0 0.20000652E+02</rscale>
<asrwt>0</asrwt>
<pdfrwt beam="2">  1        4 0.50607823E-03 0.20000652E+02</pdfrwt>
<pdfrwt beam="1">  1       -4 0.46771786E-02 0.20000652E+02</pdfrwt>
<totfact> 0.12266160E+06</totfact>
</mgrwt>
</event>
<event>
 5    1  0.1154861E-006  0.2000313E+02  0.7818608E-02  0.1745266E+00
          4   -1    0    0  501    0  0.00000000000E+00  0.00000000000E+00  0.21811812008E+01  0.26026815846E+01  0.14200000000E+01 0. -1.
         -4   -1    0    0    0  501 -0.00000000000E+00 -0.00000000000E+00 -0.41385544200E+02  0.41409898197E+02  0.14200000000E+01 0.  1.
       1023    2    1    2    0    0  0.00000000000E+00  0.00000000000E+00 -0.39204362999E+02  0.44012579782E+02  0.20003127278E+02 0.  0.
        -11    1    3    3    0    0 -0.80062169790E+01  0.59933634785E+01 -0.19836683411E+02  0.22215173308E+02  0.51100000000E-03 0. -1.
         11    1    3    3    0    0  0.80062169790E+01 -0.59933634785E+01 -0.19367679588E+02  0.21797406474E+02  0.51100000000E-03 0.  1.
<mgrwt>
<rscale>  0 0.20003127E+02</rscale>
<asrwt>0</asrwt>
<pdfrwt beam="1">  1        4 0.36986286E-03 0.20003127E+02</pdfrwt>
<pdfrwt beam="2">  1       -4 0.64013027E-02 0.20003127E+02</pdfrwt>
<totfact> 0.11775971E+06</totfact>
</mgrwt>
</event>
<event>
 4    1  0.1154861E-006  0.2007814E+02  0.7818608E-02  0.1743779E+00
          4   -1    0    0  501    0  0.00000000000E+00  0.00000000000E+00  0.61846162689E+02  0.61862462280E+02  0.14200000000E+01 0.  1.
         -4   -1    0    0    0  501 -0.00000000000E+00 -0.00000000000E+00 -0.13004991949E+01  0.19255384068E+01  0.14200000000E+01 0. -1.
        -11    1    1    2    0    0 -0.92899334858E+01  0.37686675764E+01  0.28600166014E+02  0.30306356029E+02  0.51100000000E-03 0. -1.
         11    1    1    2    0    0  0.92899334858E+01 -0.37686675764E+01  0.31945497480E+02  0.33481644658E+02  0.51100000000E-03 0.  1.
<mgrwt>
<rscale>  0 0.20078139E+02</rscale>
<asrwt>0</asrwt>
<pdfrwt beam="1">  1        4 0.95641290E-02 0.20078139E+02</pdfrwt>
<pdfrwt beam="2">  1       -4 0.24941053E-03 0.20078139E+02</pdfrwt>
<totfact> 0.10890049E+06</totfact>
</mgrwt>
</event>
<event>
 5    1  0.1154861E-006  0.2001050E+02  0.7818608E-02  0.1745119E+00
          4   -1    0    0  501    0  0.00000000000E+00  0.00000000000E+00  0.42924125063E+01  0.45211950991E+01  0.14200000000E+01 0.  1.
         -4   -1    0    0    0  501 -0.00000000000E+00 -0.00000000000E+00 -0.22464227334E+02  0.22509062835E+02  0.14200000000E+01 0. -1.
       1023    2    1    2    0    0  0.00000000000E+00  0.00000000000E+00 -0.18171814828E+02  0.27030257935E+02  0.20010496992E+02 0.  0.
        -11    1    3    3    0    0 -0.23610744405E+01 -0.97192508662E+01 -0.87376008694E+01  0.13280970564E+02  0.51100000000E-03 0.  1.
         11    1    3    3    0    0  0.23610744405E+01  0.97192508662E+01 -0.94342139586E+01  0.13749287370E+02  0.51100000000E-03 0. -1.
<mgrwt>
<rscale>  0 0.20010497E+02</rscale>
<asrwt>0</asrwt>
<pdfrwt beam="1">  1        4 0.68141872E-03 0.20010497E+02</pdfrwt>
<pdfrwt beam="2">  1       -4 0.34770824E-02 0.20010497E+02</pdfrwt>
<totfact> 0.12600393E+06</totfact>
</mgrwt>
</event>
<event>
 5    1  0.1154861E-006  0.2000107E+02  0.7818608E-02  0.1745307E+00
         -4   -1    0    0    0  501 -0.00000000000E+00  0.00000000000E+00  0.93752247628E+02  0.93763000887E+02  0.14200000000E+01 0. -1.
          4   -1    0    0  501    0  0.00000000000E+00 -0.00000000000E+00 -0.57850658329E+00  0.15333198841E+01  0.14200000000E+01 0.  1.
       1023    2    1    2    0    0  0.00000000000E+00  0.00000000000E+00  0.93173741045E+02  0.95296320771E+02  0.20001068277E+02 0.  0.
        -11    1    3    3    0    0  0.89422758983E+01 -0.44766990715E+01  0.46941821448E+02  0.47995205323E+02  0.51100000000E-03 0. -1.
         11    1    3    3    0    0 -0.89422758983E+01  0.44766990715E+01  0.46231919596E+02  0.47301115448E+02  0.51100000000E-03 0.  1.
<mgrwt>
<rscale>  0 0.20001068E+02</rscale>
<asrwt>0</asrwt>
<pdfrwt beam="2">  1        4 0.16327532E-03 0.20001068E+02</pdfrwt>
<pdfrwt beam="1">  1       -4 0.14497700E-01 0.20001068E+02</pdfrwt>
<totfact> 0.99362246E+05</totfact>
</mgrwt>
</event>
<event>
 5    1  0.1154861E-006  0.2000025E+02  0.7818608E-02  0.1745323E+00
          4   -1    0    0  501    0  0.00000000000E+00  0.00000000000E+00  0.66879819246E+01  0.68370682477E+01  0.14200000000E+01 0.  1.
         -4   -1    0    0    0  501 -0.00000000000E+00 -0.00000000000E+00 -0.14603843735E+02  0.14672717943E+02  0.14200000000E+01 0. -1.
       1023    2    1    2    0    0  0.00000000000E+00  0.00000000000E+00 -0.79158618100E+01  0.21509786190E+02  0.20000250842E+02 0.  0.
        -11    1    3    3    0    0  0.13920569044E+01  0.99026820726E+01 -0.39152693238E+01  0.10739193117E+02  0.51100000000E-03 0.  1.
         11    1    3    3    0    0 -0.13920569044E+01 -0.99026820726E+01 -0.40005924861E+01  0.10770593074E+02  0.51100000000E-03 0. -1.
<mgrwt>
<rscale>  0 0.20000251E+02</rscale>
<asrwt>0</asrwt>
<pdfrwt beam="1">  1        4 0.10456865E-02 0.20000251E+02</pdfrwt>
<pdfrwt beam="2">  1       -4 0.22635114E-02 0.20000251E+02</pdfrwt>
<totfact> 0.12924462E+06</totfact>
</mgrwt>
</event>
<event>
 5    1  0.1154861E-006  0.2000196E+02  0.7818608E-02  0.1745289E+00
         -4   -1    0    0    0  501 -0.00000000000E+00  0.00000000000E+00  0.29616096500E+02  0.29650119256E+02  0.14200000000E+01 0.  1.
          4   -1    0    0  501    0  0.00000000000E+00 -0.00000000000E+00 -0.31902805568E+01  0.34920323639E+01  0.14200000000E+01 0. -1.
       1023    2    1    2    0    0  0.00000000000E+00  0.00000000000E+00  0.26425815943E+02  0.33142151620E+02  0.20001961547E+02 0.  0.
        -11    1    3    3    0    0  0.56668156842E+01  0.82403071277E+01  0.13319708515E+02  0.16656232970E+02  0.51100000000E-03 0. -1.
         11    1    3    3    0    0 -0.56668156842E+01 -0.82403071277E+01  0.13106107428E+02  0.16485918650E+02  0.51100000000E-03 0.  1.
<mgrwt>
<rscale>  0 0.20001962E+02</rscale>
<asrwt>0</asrwt>
<pdfrwt beam="2">  1        4 0.51664118E-03 0.20001962E+02</pdfrwt>
<pdfrwt beam="1">  1       -4 0.45821516E-02 0.20001962E+02</pdfrwt>
<totfact> 0.12292088E+06</totfact>
</mgrwt>
</event>
<event>
 5    1  0.1154861E-006  0.2000279E+02  0.7818608E-02  0.1745273E+00
          4   -1    0    0  501    0  0.00000000000E+00  0.00000000000E+00  0.69810299445E+00  0.15823235418E+01  0.14200000000E+01 0.  1.
         -4   -1    0    0    0  501 -0.00000000000E+00 -0.00000000000E+00 -0.86835107703E+02  0.86846717439E+02  0.14200000000E+01 0. -1.
       1023    2    1    2    0    0  0.00000000000E+00  0.00000000000E+00 -0.86137004709E+02  0.88429040980E+02  0.20002792517E+02 0.  0.
        -11    1    3    3    0    0 -0.99200006632E+01  0.12709257277E+01 -0.42718683396E+02  0.43873768663E+02  0.51100000000E-03 0.  1.
         11    1    3    3    0    0  0.99200006632E+01 -0.12709257277E+01 -0.43418321313E+02  0.44555272317E+02  0.51100000000E-03 0. -1.
<mgrwt>
<rscale>  0 0.20002793E+02</rscale>
<asrwt>0</asrwt>
<pdfrwt beam="1">  1        4 0.17631055E-03 0.20002793E+02</pdfrwt>
<pdfrwt beam="2">  1       -4 0.13428152E-01 0.20002793E+02</pdfrwt>
<totfact> 0.10140989E+06</totfact>
</mgrwt>
</event>
<event>
 5    1  0.1154861E-006  0.2000018E+02  0.7818608E-02  0.1745325E+00
         -4   -1    0    0    0  501 -0.00000000000E+00  0.00000000000E+00  0.20322116082E+02  0.20371666649E+02  0.14200000000E+01 0.  1.
          4   -1    0    0  501    0  0.00000000000E+00 -0.00000000000E+00 -0.47615513716E+01  0.49687796756E+01  0.14200000000E+01 0. -1.
       1023    2    1    2    0    0  0.00000000000E+00  0.00000000000E+00  0.15560564710E+02  0.25340446324E+02  0.20000176145E+02 0.  0.
        -11    1    3    3    0    0 -0.99004041722E+01  0.14079243592E+01  0.78294746611E+01  0.12700430209E+02  0.51100000000E-03 0.  1.
         11    1    3    3    0    0  0.99004041722E+01 -0.14079243592E+01  0.77310900494E+01  0.12640016115E+02  0.51100000000E-03 0. -1.
<mgrwt>
<rscale>  0 0.20000176E+02</rscale>
<asrwt>0</asrwt>
<pdfrwt beam="2">  1        4 0.75229860E-03 0.20000176E+02</pdfrwt>
<pdfrwt beam="1">  1       -4 0.31462316E-02 0.20000176E+02</pdfrwt>
<totfact> 0.12706412E+06</totfact>
</mgrwt>
</event>
<event>
 5    1  0.1154861E-006  0.2000033E+02  0.7818608E-02  0.1745321E+00
          4   -1    0    0  501    0  0.00000000000E+00  0.00000000000E+00  0.34897342456E+02  0.34926220960E+02  0.14200000000E+01 0.  1.
         -4   -1    0    0    0  501 -0.00000000000E+00 -0.00000000000E+00 -0.26577245929E+01  0.30132872435E+01  0.14200000000E+01 0. -1.
       1023    2    1    2    0    0  0.00000000000E+00  0.00000000000E+00  0.32239617863E+02  0.37939508203E+02  0.20000333065E+02 0.  0.
        -11    1    3    3    0    0 -0.22459619984E+01 -0.97446654598E+01  0.16161377307E+02  0.19005077399E+02  0.51100000000E-03 0. -1.
         11    1    3    3    0    0  0.22459619984E+01  0.97446654598E+01  0.16078240556E+02  0.18934430804E+02  0.51100000000E-03 0.  1.
<mgrwt>
<rscale>  0 0.20000333E+02</rscale>
<asrwt>0</asrwt>
<pdfrwt beam="1">  1        4 0.53983944E-02 0.20000333E+02</pdfrwt>
<pdfrwt beam="2">  1       -4 0.43845309E-03 0.20000333E+02</pdfrwt>
<totfact> 0.12059208E+06</totfact>
</mgrwt>
</event>
<event>
 5    1  0.1154861E-006  0.2000146E+02  0.7818608E-02  0.1745299E+00
          4   -1    0    0  501    0  0.00000000000E+00  0.00000000000E+00  0.71157720584E+02  0.71171887699E+02  0.14200000000E+01 0. -1.
         -4   -1    0    0    0  501 -0.00000000000E+00 -0.00000000000E+00 -0.10288402269E+01  0.17535427604E+01  0.14200000000E+01 0.  1.
       1023    2    1    2    0    0  0.00000000000E+00  0.00000000000E+00  0.70128880357E+02  0.72925430459E+02  0.20001463637E+02 0.  0.
        -11    1    3    3    0    0 -0.97953166185E+01 -0.20138108820E+01  0.34682483637E+02  0.36095405987E+02  0.51100000000E-03 0.  1.
         11    1    3    3    0    0  0.97953166185E+01  0.20138108820E+01  0.35446396720E+02  0.36830024472E+02  0.51100000000E-03 0. -1.
<mgrwt>
<rscale>  0 0.20001464E+02</rscale>
<asrwt>0</asrwt>
<pdfrwt beam="1">  1        4 0.11004176E-01 0.20001464E+02</pdfrwt>
<pdfrwt beam="2">  1       -4 0.21511927E-03 0.20001464E+02</pdfrwt>
<totfact> 0.10647156E+06</totfact>
</mgrwt>
</event>
<event>
 5    1  0.1154861E-006  0.2000032E+02  0.7818608E-02  0.1745322E+00
          4   -1    0    0  501    0  0.00000000000E+00  0.00000000000E+00  0.57482573500E+01  0.59210524877E+01  0.14200000000E+01 0.  1.
         -4   -1    0    0    0  501 -0.00000000000E+00 -0.00000000000E+00 -0.16936576609E+02  0.16996000331E+02  0.14200000000E+01 0. -1.
       1023    2    1    2    0    0  0.00000000000E+00  0.00000000000E+00 -0.11188319259E+02  0.22917052818E+02  0.20000320548E+02 0.  0.
        -11    1    3    3    0    0  0.11804411944E+01 -0.99301768857E+01 -0.55520457016E+01  0.11437965996E+02  0.51100000000E-03 0. -1.
         11    1    3    3    0    0 -0.11804411944E+01  0.99301768857E+01 -0.56362735575E+01  0.11479086822E+02  0.51100000000E-03 0.  1.
<mgrwt>
<rscale>  0 0.20000321E+02</rscale>
<asrwt>0</asrwt>
<pdfrwt beam="1">  1        4 0.90221028E-03 0.20000321E+02</pdfrwt>
<pdfrwt beam="2">  1       -4 0.26234901E-02 0.20000321E+02</pdfrwt>
<totfact> 0.12842907E+06</totfact>
</mgrwt>
</event>
<event>
 5    1  0.1154861E-006  0.2000270E+02  0.7818608E-02  0.1745274E+00
         -4   -1    0    0    0  501 -0.00000000000E+00  0.00000000000E+00  0.10309350209E+01  0.17547726398E+01  0.14200000000E+01 0. -1.
          4   -1    0    0  501    0  0.00000000000E+00 -0.00000000000E+00 -0.71081628537E+02  0.71095810815E+02  0.14200000000E+01 0.  1.
       1023    2    1    2    0    0  0.00000000000E+00  0.00000000000E+00 -0.70050693516E+02  0.72850583455E+02  0.20002696010E+02 0.  0.
        -11    1    3    3    0    0  0.97727438658E+01  0.21210119669E+01 -0.35562435919E+02  0.36941738768E+02  0.51100000000E-03 0.  1.
         11    1    3    3    0    0 -0.97727438658E+01 -0.21210119669E+01 -0.34488257597E+02  0.35908844687E+02  0.51100000000E-03 0. -1.
<mgrwt>
<rscale>  0 0.20002696E+02</rscale>
<asrwt>0</asrwt>
<pdfrwt beam="2">  1        4 0.10992403E-01 0.20002696E+02</pdfrwt>
<pdfrwt beam="1">  1       -4 0.21537620E-03 0.20002696E+02</pdfrwt>
<totfact> 0.10648424E+06</totfact>
</mgrwt>
</event>
<event>
 5    1  0.1154861E-006  0.2000054E+02  0.7818608E-02  0.1745317E+00
          4   -1    0    0  501    0  0.00000000000E+00  0.00000000000E+00  0.12821989033E+02  0.12900379946E+02  0.14200000000E+01 0.  1.
         -4   -1    0    0    0  501 -0.00000000000E+00 -0.00000000000E+00 -0.76316750739E+01  0.77626583355E+01  0.14200000000E+01 0. -1.
       1023    2    1    2    0    0  0.00000000000E+00  0.00000000000E+00  0.51903139586E+01  0.20663038282E+02  0.20000544793E+02 0.  0.
        -11    1    3    3    0    0  0.72699218539E+01 -0.68667036374E+01  0.26421060947E+01  0.10343312210E+02  0.51100000000E-03 0.  1.
         11    1    3    3    0    0 -0.72699218539E+01  0.68667036374E+01  0.25482078639E+01  0.10319726071E+02  0.51100000000E-03 0. -1.
<mgrwt>
<rscale>  0 0.20000545E+02</rscale>
<asrwt>0</asrwt>
<pdfrwt beam="1">  1        4 0.19887194E-02 0.20000545E+02</pdfrwt>
<pdfrwt beam="2">  1       -4 0.11902096E-02 0.20000545E+02</pdfrwt>
<totfact> 0.12973961E+06</totfact>
</mgrwt>
</event>
<event>
 5    1  0.1154861E-006  0.2000059E+02  0.7818608E-02  0.1745316E+00
          4   -1    0    0  501    0  0.00000000000E+00  0.00000000000E+00  0.69234218921E+01  0.70675434697E+01  0.14200000000E+01 0. -1.
         -4   -1    0    0    0  501 -0.00000000000E+00 -0.00000000000E+00 -0.14115673043E+02  0.14186917405E+02  0.14200000000E+01 0.  1.
       1023    2    1    2    0    0  0.00000000000E+00  0.00000000000E+00 -0.71922511507E+01  0.21254460874E+02  0.20000590753E+02 0.  0.
        -11    1    3    3    0    0  0.68468960710E+01 -0.72885976371E+01 -0.36467127000E+01  0.10644348505E+02  0.51100000000E-03 0. -1.
         11    1    3    3    0    0 -0.68468960710E+01  0.72885976371E+01 -0.35455384507E+01  0.10610112369E+02  0.51100000000E-03 0.  1.
<mgrwt>
<rscale>  0 0.20000591E+02</rscale>
<asrwt>0</asrwt>
<pdfrwt beam="1">  1        4 0.10817084E-02 0.20000591E+02</pdfrwt>
<pdfrwt beam="2">  1       -4 0.21882086E-02 0.20000591E+02</pdfrwt>
<totfact> 0.12938984E+06</totfact>
</mgrwt>
</event>
<event>
 5    1  0.1154861E-006  0.2000012E+02  0.7818608E-02  0.1745326E+00
          4   -1    0    0  501    0  0.00000000000E+00  0.00000000000E+00  0.47224433952E+02  0.47245778247E+02  0.14200000000E+01 0. -1.
         -4   -1    0    0    0  501 -0.00000000000E+00 -0.00000000000E+00 -0.18551547909E+01  0.23362361392E+01  0.14200000000E+01 0.  1.
       1023    2    1    2    0    0  0.00000000000E+00  0.00000000000E+00  0.45369279161E+02  0.49582014386E+02  0.20000116473E+02 0.  0.
        -11    1    3    3    0    0  0.27711046078E+01  0.96083986870E+01  0.22613718924E+02  0.24726112309E+02  0.51100000000E-03 0.  1.
         11    1    3    3    0    0 -0.27711046078E+01 -0.96083986870E+01  0.22755560237E+02  0.24855902077E+02  0.51100000000E-03 0. -1.
<mgrwt>
<rscale>  0 0.20000116E+02</rscale>
<asrwt>0</asrwt>
<pdfrwt beam="1">  1        4 0.73039450E-02 0.20000116E+02</pdfrwt>
<pdfrwt beam="2">  1       -4 0.32405658E-03 0.20000116E+02</pdfrwt>
<totfact> 0.11537696E+06</totfact>
</mgrwt>
</event>
<event>
 5    1  0.1154861E-006  0.2000161E+02  0.7818608E-02  0.1745296E+00
          4   -1    0    0  501    0  0.00000000000E+00  0.00000000000E+00  0.10217213764E+01  0.17493754803E+01  0.14200000000E+01 0.  1.
         -4   -1    0    0    0  501 -0.00000000000E+00 -0.00000000000E+00 -0.71448675609E+02  0.71462785045E+02  0.14200000000E+01 0. -1.
       1023    2    1    2    0    0  0.00000000000E+00  0.00000000000E+00 -0.70426954233E+02  0.73212160525E+02  0.20001614090E+02 0.  0.
        -11    1    3    3    0    0 -0.20066670802E+01  0.97973206522E+01 -0.35374553823E+02  0.36761029136E+02  0.51100000000E-03 0.  1.
         11    1    3    3    0    0  0.20066670802E+01 -0.97973206522E+01 -0.35052400410E+02  0.36451131388E+02  0.51100000000E-03 0. -1.
<mgrwt>
<rscale>  0 0.20001614E+02</rscale>
<asrwt>0</asrwt>
<pdfrwt beam="1">  1        4 0.21424669E-03 0.20001614E+02</pdfrwt>
<pdfrwt beam="2">  1       -4 0.11049160E-01 0.20001614E+02</pdfrwt>
<totfact> 0.10637115E+06</totfact>
</mgrwt>
</event>
<event>
 4    1  0.1154861E-006  0.2004362E+02  0.7818608E-02  0.1744462E+00
         -4   -1    0    0    0  501 -0.00000000000E+00  0.00000000000E+00  0.20863066275E+01  0.25237027051E+01  0.14200000000E+01 0. -1.
          4   -1    0    0  501    0  0.00000000000E+00 -0.00000000000E+00 -0.43123123793E+02  0.43146497026E+02  0.14200000000E+01 0.  1.
        -11    1    1    2    0    0 -0.80724887070E+01  0.59276445457E+01 -0.19682302060E+02  0.22083818928E+02  0.51100000000E-03 0.  1.
         11    1    1    2    0    0  0.80724887070E+01 -0.59276445457E+01 -0.21354515105E+02  0.23586380804E+02  0.51100000000E-03 0. -1.
<mgrwt>
<rscale>  0 0.20043622E+02</rscale>
<asrwt>0</asrwt>
<pdfrwt beam="2">  1        4 0.66697699E-02 0.20043622E+02</pdfrwt>
<pdfrwt beam="1">  1       -4 0.35641407E-03 0.20043622E+02</pdfrwt>
<totfact> 0.11654848E+06</totfact>
</mgrwt>
</event>
<event>
 5    1  0.1154861E-006  0.2000918E+02  0.7818608E-02  0.1745145E+00
         -4   -1    0    0    0  501 -0.00000000000E+00  0.00000000000E+00  0.58216494439E+02  0.58233809980E+02  0.14200000000E+01 0.  1.
          4   -1    0    0  501    0  0.00000000000E+00 -0.00000000000E+00 -0.14054538876E+01  0.19979240802E+01  0.14200000000E+01 0. -1.
       1023    2    1    2    0    0  0.00000000000E+00  0.00000000000E+00  0.56811040551E+02  0.60231734060E+02  0.20009184375E+02 0.  0.
        -11    1    3    3    0    0  0.65951978599E+00  0.99809918981E+01  0.27828856265E+02  0.29571953045E+02  0.51100000000E-03 0.  1.
         11    1    3    3    0    0 -0.65951978599E+00 -0.99809918981E+01  0.28982184286E+02  0.30659781015E+02  0.51100000000E-03 0. -1.
<mgrwt>
<rscale>  0 0.20009184E+02</rscale>
<asrwt>0</asrwt>
<pdfrwt beam="2">  1        4 0.26313026E-03 0.20009184E+02</pdfrwt>
<pdfrwt beam="1">  1       -4 0.90032906E-02 0.20009184E+02</pdfrwt>
<totfact> 0.11099709E+06</totfact>
</mgrwt>
</event>
<event>
 5    1  0.1162967E-006  0.2000071E+02  0.7818608E-02  0.1745314E+00
         -4   -1    0    0    0  501 -0.00000000000E+00  0.00000000000E+00  0.30749489975E+02  0.30782260049E+02  0.14200000000E+01 0. -1.
          4   -1    0    0  501    0  0.00000000000E+00 -0.00000000000E+00 -0.30610687672E+01  0.33743950565E+01  0.14200000000E+01 0.  1.
       1023    2    1    2    0    0  0.00000000000E+00  0.00000000000E+00  0.27688421208E+02  0.34156655106E+02  0.20000710463E+02 0.  0.
        -11    1    3    3    0    0  0.99306074401E+01 -0.11790079392E+01  0.13828874504E+02  0.17065895645E+02  0.51100000000E-03 0.  1.
         11    1    3    3    0    0 -0.99306074401E+01  0.11790079392E+01  0.13859546704E+02  0.17090759461E+02  0.51100000000E-03 0. -1.
<mgrwt>
<rscale>  0 0.20000710E+02</rscale>
<asrwt>0</asrwt>
<pdfrwt beam="2">  1        4 0.49755647E-03 0.20000710E+02</pdfrwt>
<pdfrwt beam="1">  1       -4 0.47573134E-02 0.20000710E+02</pdfrwt>
<totfact> 0.12242862E+06</totfact>
</mgrwt>
</event>
<event>
 5    1  0.1174237E-006  0.2000085E+02  0.7818608E-02  0.1745311E+00
          4   -1    0    0  501    0  0.00000000000E+00  0.00000000000E+00  0.20490348298E+02  0.20539493016E+02  0.14200000000E+01 0. -1.
         -4   -1    0    0    0  501 -0.00000000000E+00 -0.00000000000E+00 -0.47211844741E+01  0.49301098201E+01  0.14200000000E+01 0.  1.
       1023    2    1    2    0    0  0.00000000000E+00  0.00000000000E+00  0.15769163824E+02  0.25469602836E+02  0.20000853505E+02 0.  0.
        -11    1    3    3    0    0 -0.92870767747E+01 -0.37086406827E+01  0.77970553716E+01  0.12680610532E+02  0.51100000000E-03 0. -1.
         11    1    3    3    0    0  0.92870767747E+01  0.37086406827E+01  0.79721084520E+01  0.12788992304E+02  0.51100000000E-03 0.  1.
<mgrwt>
<rscale>  0 0.20000854E+02</rscale>
<asrwt>0</asrwt>
<pdfrwt beam="1">  1        4 0.31722128E-02 0.20000854E+02</pdfrwt>
<pdfrwt beam="2">  1       -4 0.74618761E-03 0.20000854E+02</pdfrwt>
<totfact> 0.12698368E+06</totfact>
</mgrwt>
</event>
<event>
 4    1  0.1154861E-006  0.2020445E+02  0.7818608E-02  0.1741293E+00
         -4   -1    0    0    0  501 -0.00000000000E+00  0.00000000000E+00  0.81494615507E+00  0.16372346306E+01  0.14200000000E+01 0. -1.
          4   -1    0    0  501    0  0.00000000000E+00 -0.00000000000E+00 -0.82405609454E+02  0.82417843150E+02  0.14200000000E+01 0.  1.
        -11    1    1    2    0    0  0.26298234737E+01 -0.97329265818E+01 -0.43456280644E+02  0.44610471406E+02  0.51100000000E-03 0. -1.
         11    1    1    2    0    0 -0.26298234737E+01  0.97329265818E+01 -0.38134382655E+02  0.39444606375E+02  0.51100000000E-03 0.  1.
<mgrwt>
<rscale>  0 0.20204449E+02</rscale>
<asrwt>0</asrwt>
<pdfrwt beam="2">  1        4 0.12741976E-01 0.20204449E+02</pdfrwt>
<pdfrwt beam="1">  1       -4 0.18957041E-03 0.20204449E+02</pdfrwt>
<totfact> 0.10073218E+06</totfact>
</mgrwt>
</event>
<event>
 5    1  0.1154861E-006  0.2000097E+02  0.7818608E-02  0.1745309E+00
         -4   -1    0    0    0  501 -0.00000000000E+00  0.00000000000E+00  0.66320179400E+00  0.15672385331E+01  0.14200000000E+01 0. -1.
          4   -1    0    0  501    0  0.00000000000E+00 -0.00000000000E+00 -0.88765113639E+02  0.88776470978E+02  0.14200000000E+01 0.  1.
       1023    2    1    2    0    0  0.00000000000E+00  0.00000000000E+00 -0.88101911845E+02  0.90343709511E+02  0.20000974414E+02 0.  0.
        -11    1    3    3    0    0  0.45362332817E+01  0.89124722625E+01 -0.43992078930E+02  0.45114438742E+02  0.51100000000E-03 0.  1.
         11    1    3    3    0    0 -0.45362332817E+01 -0.89124722625E+01 -0.44109832915E+02  0.45229270768E+02  0.51100000000E-03 0. -1.
<mgrwt>
<rscale>  0 0.20000974E+02</rscale>
<asrwt>0</asrwt>
<pdfrwt beam="2">  1        4 0.13726581E-01 0.20000974E+02</pdfrwt>
<pdfrwt beam="1">  1       -4 0.17244604E-03 0.20000974E+02</pdfrwt>
<totfact> 0.10084269E+06</totfact>
</mgrwt>
</event>
<event>
 5    1  0.1154861E-006  0.2000154E+02  0.7818608E-02  0.1745297E+00
         -4   -1    0    0    0  501 -0.00000000000E+00  0.00000000000E+00  0.31912064969E+02  0.31943642412E+02  0.14200000000E+01 0. -1.
          4   -1    0    0  501    0  0.00000000000E+00 -0.00000000000E+00 -0.29383189620E+01  0.32634519029E+01  0.14200000000E+01 0.  1.
       1023    2    1    2    0    0  0.00000000000E+00  0.00000000000E+00  0.28973746007E+02  0.35207094315E+02  0.20001538252E+02 0.  0.
        -11    1    3    3    0    0  0.44648931526E+01 -0.89487478672E+01  0.14478321979E+02  0.17596510075E+02  0.51100000000E-03 0. -1.
         11    1    3    3    0    0 -0.44648931526E+01  0.89487478672E+01  0.14495424028E+02  0.17610584240E+02  0.51100000000E-03 0.  1.
<mgrwt>
<rscale>  0 0.20001538E+02</rscale>
<asrwt>0</asrwt>
<pdfrwt beam="2">  1        4 0.47948830E-03 0.20001538E+02</pdfrwt>
<pdfrwt beam="1">  1       -4 0.49369881E-02 0.20001538E+02</pdfrwt>
<totfact> 0.12189897E+06</totfact>
</mgrwt>
</event>
<event>
 5    1  0.1154861E-006  0.2000058E+02  0.7818608E-02  0.1745316E+00
         -4   -1    0    0    0  501 -0.00000000000E+00  0.00000000000E+00  0.45773655865E+01  0.47925646279E+01  0.14200000000E+01 0.  1.
          4   -1    0    0  501    0  0.00000000000E+00 -0.00000000000E+00 -0.21106520967E+02  0.21154234265E+02  0.14200000000E+01 0. -1.
       1023    2    1    2    0    0  0.00000000000E+00  0.00000000000E+00 -0.16529155380E+02  0.25946798893E+02  0.20000584871E+02 0.  0.
        -11    1    3    3    0    0  0.79468263117E+01 -0.60703147643E+01 -0.83570305513E+01  0.13032295641E+02  0.51100000000E-03 0.  1.
         11    1    3    3    0    0 -0.79468263117E+01  0.60703147643E+01 -0.81721248291E+01  0.12914503252E+02  0.51100000000E-03 0. -1.
<mgrwt>
<rscale>  0 0.20000585E+02</rscale>
<asrwt>0</asrwt>
<pdfrwt beam="2">  1        4 0.32673810E-02 0.20000585E+02</pdfrwt>
<pdfrwt beam="1">  1       -4 0.72443413E-03 0.20000585E+02</pdfrwt>
<totfact> 0.12672343E+06</totfact>
</mgrwt>
</event>
<event>
 5    1  0.1154861E-006  0.2000031E+02  0.7818608E-02  0.1745322E+00
         -4   -1    0    0    0  501 -0.00000000000E+00  0.00000000000E+00  0.17186347384E+02  0.17244910449E+02  0.14200000000E+01 0.  1.
          4   -1    0    0  501    0  0.00000000000E+00 -0.00000000000E+00 -0.56624758772E+01  0.58378106392E+01  0.14200000000E+01 0. -1.
       1023    2    1    2    0    0  0.00000000000E+00  0.00000000000E+00  0.11523871507E+02  0.23082721088E+02  0.20000309956E+02 0.  0.
        -11    1    3    3    0    0 -0.91160344079E+01 -0.41110405878E+01  0.57399989004E+01  0.11530408739E+02  0.51100000000E-03 0. -1.
         11    1    3    3    0    0  0.91160344079E+01  0.41110405878E+01  0.57838726064E+01  0.11552312350E+02  0.51100000000E-03 0.  1.
<mgrwt>
<rscale>  0 0.20000310E+02</rscale>
<asrwt>0</asrwt>
<pdfrwt beam="2">  1        4 0.88914229E-03 0.20000310E+02</pdfrwt>
<pdfrwt beam="1">  1       -4 0.26620455E-02 0.20000310E+02</pdfrwt>
<totfact> 0.12833440E+06</totfact>
</mgrwt>
</event>
<event>
 5    1  0.1154861E-006  0.2000032E+02  0.7818608E-02  0.1745322E+00
         -4   -1    0    0    0  501 -0.00000000000E+00  0.00000000000E+00  0.37766835358E+02  0.37793521309E+02  0.14200000000E+01 0.  1.
          4   -1    0    0  501    0  0.00000000000E+00 -0.00000000000E+00 -0.24278320589E+01  0.28126088434E+01  0.14200000000E+01 0. -1.
       1023    2    1    2    0    0  0.00000000000E+00  0.00000000000E+00  0.35339003299E+02  0.40606130153E+02  0.20000316293E+02 0.  0.
        -11    1    3    3    0    0  0.95567562771E+01  0.29447493605E+01  0.17659690070E+02  0.20294526182E+02  0.51100000000E-03 0.  1.
         11    1    3    3    0    0 -0.95567562771E+01 -0.29447493605E+01  0.17679313229E+02  0.20311603971E+02  0.51100000000E-03 0. -1.
<mgrwt>
<rscale>  0 0.20000316E+02</rscale>
<asrwt>0</asrwt>
<pdfrwt beam="2">  1        4 0.40516362E-03 0.20000316E+02</pdfrwt>
<pdfrwt beam="1">  1       -4 0.58419331E-02 0.20000316E+02</pdfrwt>
<totfact> 0.11934109E+06</totfact>
</mgrwt>
</event>
<event>
 5    1  0.1154861E-006  0.2000275E+02  0.7818608E-02  0.1745273E+00
          4   -1    0    0  501    0  0.00000000000E+00  0.00000000000E+00  0.27320145188E+01  0.30790101220E+01  0.14200000000E+01 0. -1.
         -4   -1    0    0    0  501 -0.00000000000E+00 -0.00000000000E+00 -0.34064130680E+02  0.34093714949E+02  0.14200000000E+01 0.  1.
       1023    2    1    2    0    0  0.00000000000E+00  0.00000000000E+00 -0.31332116161E+02  0.37172725070E+02  0.20002749462E+02 0.  0.
        -11    1    3    3    0    0  0.70545213349E+01 -0.70881294823E+01 -0.15405583476E+02  0.18366813913E+02  0.51100000000E-03 0. -1.
         11    1    3    3    0    0 -0.70545213349E+01  0.70881294823E+01 -0.15926532685E+02  0.18805911157E+02  0.51100000000E-03 0.  1.
<mgrwt>
<rscale>  0 0.20002749E+02</rscale>
<asrwt>0</asrwt>
<pdfrwt beam="1">  1        4 0.44927763E-03 0.20002749E+02</pdfrwt>
<pdfrwt beam="2">  1       -4 0.52696029E-02 0.20002749E+02</pdfrwt>
<totfact> 0.12092922E+06</totfact>
</mgrwt>
</event>
<event>
 5    1  0.1154861E-006  0.2000650E+02  0.7818608E-02  0.1745199E+00
          4   -1    0    0  501    0  0.00000000000E+00  0.00000000000E+00  0.72450528999E+02  0.72464443365E+02  0.14200000000E+01 0. -1.
         -4   -1    0    0    0  501 -0.00000000000E+00 -0.00000000000E+00 -0.99832154036E+00  0.17358127485E+01  0.14200000000E+01 0.  1.
       1023    2    1    2    0    0  0.00000000000E+00  0.00000000000E+00  0.71452207458E+02  0.74200256113E+02  0.20006500360E+02 0.  0.
        -11    1    3    3    0    0  0.73515281682E+01 -0.67837552393E+01  0.35825090886E+02  0.37195449168E+02  0.51100000000E-03 0. -1.
         11    1    3    3    0    0 -0.73515281682E+01  0.67837552393E+01  0.35627116572E+02  0.37004806946E+02  0.51100000000E-03 0.  1.
<mgrwt>
<rscale>  0 0.20006500E+02</rscale>
<asrwt>0</asrwt>
<pdfrwt beam="1">  1        4 0.11204035E-01 0.20006500E+02</pdfrwt>
<pdfrwt beam="2">  1       -4 0.21138836E-03 0.20006500E+02</pdfrwt>
<totfact> 0.10598043E+06</totfact>
</mgrwt>
</event>
<event>
 5    1  0.1215994E-006  0.2000113E+02  0.7818608E-02  0.1745306E+00
          4   -1    0    0  501    0  0.00000000000E+00  0.00000000000E+00  0.14891202701E+02  0.14958753888E+02  0.14200000000E+01 0.  1.
         -4   -1    0    0    0  501 -0.00000000000E+00 -0.00000000000E+00 -0.65572127090E+01  0.67092055052E+01  0.14200000000E+01 0. -1.
       1023    2    1    2    0    0  0.00000000000E+00  0.00000000000E+00  0.83339899921E+01  0.21667959393E+02  0.20001126845E+02 0.  0.
        -11    1    3    3    0    0  0.96968875995E+01 -0.24435178941E+01  0.42798893809E+01  0.10877401445E+02  0.51100000000E-03 0.  1.
         11    1    3    3    0    0 -0.96968875995E+01  0.24435178941E+01  0.40541006112E+01  0.10790557949E+02  0.51100000000E-03 0. -1.
<mgrwt>
<rscale>  0 0.20001127E+02</rscale>
<asrwt>0</asrwt>
<pdfrwt beam="1">  1        4 0.23078423E-02 0.20001127E+02</pdfrwt>
<pdfrwt beam="2">  1       -4 0.10256900E-02 0.20001127E+02</pdfrwt>
<totfact> 0.12914066E+06</totfact>
</mgrwt>
</event>
<event>
 5    1  0.1154861E-006  0.2000212E+02  0.7818608E-02  0.1745286E+00
         -4   -1    0    0    0  501 -0.00000000000E+00  0.00000000000E+00  0.19421944521E+01  0.24059341823E+01  0.14200000000E+01 0.  1.
          4   -1    0    0  501    0  0.00000000000E+00 -0.00000000000E+00 -0.45530565357E+02  0.45552703342E+02  0.14200000000E+01 0. -1.
       1023    2    1    2    0    0  0.00000000000E+00  0.00000000000E+00 -0.43588370905E+02  0.47958637524E+02  0.20002120763E+02 0.  0.
        -11    1    3    3    0    0  0.98392727026E+01 -0.17881962334E+01 -0.22059834776E+02  0.24220760593E+02  0.51100000000E-03 0.  1.
         11    1    3    3    0    0 -0.98392727026E+01  0.17881962334E+01 -0.21528536129E+02  0.23737876931E+02  0.51100000000E-03 0. -1.
<mgrwt>
<rscale>  0 0.20002121E+02</rscale>
<asrwt>0</asrwt>
<pdfrwt beam="2">  1        4 0.70420769E-02 0.20002121E+02</pdfrwt>
<pdfrwt beam="1">  1       -4 0.33617439E-03 0.20002121E+02</pdfrwt>
<totfact> 0.11604451E+06</totfact>
</mgrwt>
</event>
<event>
 4    1  0.1154861E-006  0.2017556E+02  0.7818608E-02  0.1741859E+00
         -4   -1    0    0    0  501 -0.00000000000E+00  0.00000000000E+00  0.24855053848E+01  0.28625403085E+01  0.14200000000E+01 0.  1.
          4   -1    0    0  501    0  0.00000000000E+00 -0.00000000000E+00 -0.37664911037E+02  0.37691669152E+02  0.14200000000E+01 0. -1.
        -11    1    1    2    0    0 -0.24740585594E+01  0.97691297512E+01 -0.18503052976E+02  0.21069405107E+02  0.51100000000E-03 0.  1.
         11    1    1    2    0    0  0.24740585594E+01 -0.97691297512E+01 -0.16676352676E+02  0.19484804354E+02  0.51100000000E-03 0. -1.
<mgrwt>
<rscale>  0 0.20175563E+02</rscale>
<asrwt>0</asrwt>
<pdfrwt beam="2">  1        4 0.58256623E-02 0.20175563E+02</pdfrwt>
<pdfrwt beam="1">  1       -4 0.41344648E-03 0.20175563E+02</pdfrwt>
<totfact> 0.11727374E+06</totfact>
</mgrwt>
</event>
<event>
 5    1  0.1154861E-006  0.2000125E+02  0.7818608E-02  0.1745303E+00
         -4   -1    0    0    0  501 -0.00000000000E+00  0.00000000000E+00  0.70614276182E+02  0.70628552305E+02  0.14200000000E+01 0. -1.
          4   -1    0    0  501    0  0.00000000000E+00 -0.00000000000E+00 -0.10422737814E+01  0.17614580992E+01  0.14200000000E+01 0.  1.
       1023    2    1    2    0    0  0.00000000000E+00  0.00000000000E+00  0.69572002401E+02  0.72390010404E+02  0.20001252168E+02 0.  0.
        -11    1    3    3    0    0  0.95624967987E+01 -0.29266148321E+01  0.35068731422E+02  0.36466729264E+02  0.51100000000E-03 0.  1.
         11    1    3    3    0    0 -0.95624967987E+01  0.29266148321E+01  0.34503270979E+02  0.35923281140E+02  0.51100000000E-03 0. -1.
<mgrwt>
<rscale>  0 0.20001252E+02</rscale>
<asrwt>0</asrwt>
<pdfrwt beam="2">  1        4 0.21676980E-03 0.20001252E+02</pdfrwt>
<pdfrwt beam="1">  1       -4 0.10920157E-01 0.20001252E+02</pdfrwt>
<totfact> 0.10665886E+06</totfact>
</mgrwt>
</event>
<event>
 5    1  0.1154861E-006  0.2000044E+02  0.7818608E-02  0.1745319E+00
         -4   -1    0    0    0  501 -0.00000000000E+00  0.00000000000E+00  0.20458576978E+02  0.20507797833E+02  0.14200000000E+01 0. -1.
          4   -1    0    0  501    0  0.00000000000E+00 -0.00000000000E+00 -0.47286176180E+01  0.49372284307E+01  0.14200000000E+01 0.  1.
       1023    2    1    2    0    0  0.00000000000E+00  0.00000000000E+00  0.15729959360E+02  0.25445026263E+02  0.20000443497E+02 0.  0.
        -11    1    3    3    0    0 -0.65071692675E+01 -0.75934960764E+01  0.78655807016E+01  0.12722884680E+02  0.51100000000E-03 0.  1.
         11    1    3    3    0    0  0.65071692675E+01  0.75934960764E+01  0.78643786579E+01  0.12722141584E+02  0.51100000000E-03 0. -1.
<mgrwt>
<rscale>  0 0.20000443E+02</rscale>
<asrwt>0</asrwt>
<pdfrwt beam="2">  1        4 0.74731285E-03 0.20000443E+02</pdfrwt>
<pdfrwt beam="1">  1       -4 0.31673065E-02 0.20000443E+02</pdfrwt>
<totfact> 0.12700261E+06</totfact>
</mgrwt>
</event>
<event>
 5    1  0.1154861E-006  0.2000264E+02  0.7818608E-02  0.1745276E+00
         -4   -1    0    0    0  501 -0.00000000000E+00  0.00000000000E+00  0.94413260824E+01  0.95475147654E+01  0.14200000000E+01 0.  1.
          4   -1    0    0  501    0  0.00000000000E+00 -0.00000000000E+00 -0.10380488102E+02  0.10477162461E+02  0.14200000000E+01 0.  1.
       1023    2    1    2    0    0  0.00000000000E+00  0.00000000000E+00 -0.93916201941E+00  0.20024677226E+02  0.20002641643E+02 0.  0.
        -11    1    3    3    0    0 -0.99477217813E+01 -0.10311989599E+01 -0.39282853272E+00  0.10008738904E+02  0.51100000000E-03 0. -1.
         11    1    3    3    0    0  0.99477217813E+01  0.10311989599E+01 -0.54633348669E+00  0.10015938322E+02  0.51100000000E-03 0.  1.
<mgrwt>
<rscale>  0 0.20002642E+02</rscale>
<asrwt>0</asrwt>
<pdfrwt beam="2">  1        4 0.16126030E-02 0.20002642E+02</pdfrwt>
<pdfrwt beam="1">  1       -4 0.14681166E-02 0.20002642E+02</pdfrwt>
<totfact> 0.13009071E+06</totfact>
</mgrwt>
</event>
<event>
 5    1  0.1214372E-006  0.2000116E+02  0.7818608E-02  0.1745305E+00
          4   -1    0    0  501    0  0.00000000000E+00  0.00000000000E+00  0.61019471517E+01  0.62649947360E+01  0.14200000000E+01 0.  1.
         -4   -1    0    0    0  501 -0.00000000000E+00 -0.00000000000E+00 -0.15979078315E+02  0.16042049239E+02  0.14200000000E+01 0. -1.
       1023    2    1    2    0    0  0.00000000000E+00  0.00000000000E+00 -0.98771311634E+01  0.22307043976E+02  0.20001162239E+02 0.  0.
        -11    1    3    3    0    0  0.71155846972E+01 -0.70263748734E+01 -0.48262975159E+01  0.11103811842E+02  0.51100000000E-03 0. -1.
         11    1    3    3    0    0 -0.71155846972E+01  0.70263748734E+01 -0.50508336475E+01  0.11203232134E+02  0.51100000000E-03 0.  1.
<mgrwt>
<rscale>  0 0.20001162E+02</rscale>
<asrwt>0</asrwt>
<pdfrwt beam="1">  1        4 0.95614715E-03 0.20001162E+02</pdfrwt>
<pdfrwt beam="2">  1       -4 0.24757058E-02 0.20001162E+02</pdfrwt>
<totfact> 0.12876916E+06</totfact>
</mgrwt>
</event>
<event>
 5    1  0.1167502E-006  0.2000090E+02  0.7818608E-02  0.1745310E+00
         -4   -1    0    0    0  501 -0.00000000000E+00  0.00000000000E+00  0.38629867407E+01  0.41157097272E+01  0.14200000000E+01 0. -1.
          4   -1    0    0  501    0  0.00000000000E+00 -0.00000000000E+00 -0.24795335103E+02  0.24835962693E+02  0.14200000000E+01 0.  1.
       1023    2    1    2    0    0  0.00000000000E+00  0.00000000000E+00 -0.20932348362E+02  0.28951672420E+02  0.20000903178E+02 0.  0.
        -11    1    3    3    0    0  0.78524376469E+01  0.61925428423E+01 -0.10428765638E+02  0.14448789459E+02  0.51100000000E-03 0. -1.
         11    1    3    3    0    0 -0.78524376469E+01 -0.61925428423E+01 -0.10503582724E+02  0.14502882960E+02  0.51100000000E-03 0.  1.
<mgrwt>
<rscale>  0 0.20000903E+02</rscale>
<asrwt>0</asrwt>
<pdfrwt beam="2">  1        4 0.38372323E-02 0.20000903E+02</pdfrwt>
<pdfrwt beam="1">  1       -4 0.61687110E-03 0.20000903E+02</pdfrwt>
<totfact> 0.12509713E+06</totfact>
</mgrwt>
</event>
<event>
 5    1  0.1154861E-006  0.2000209E+02  0.7818608E-02  0.1745287E+00
          4   -1    0    0  501    0  0.00000000000E+00  0.00000000000E+00  0.10152636609E+03  0.10153629603E+03  0.14200000000E+01 0.  1.
         -4   -1    0    0    0  501 -0.00000000000E+00 -0.00000000000E+00 -0.45823147440E+00  0.14921045822E+01  0.14200000000E+01 0. -1.
       1023    2    1    2    0    0  0.00000000000E+00  0.00000000000E+00  0.10106813462E+03  0.10302840062E+03  0.20002087341E+02 0.  0.
        -11    1    3    3    0    0 -0.94666174129E+01  0.32244905308E+01  0.50955364494E+02  0.51927481697E+02  0.51100000000E-03 0.  1.
         11    1    3    3    0    0  0.94666174129E+01 -0.32244905308E+01  0.50112770125E+02  0.51100918919E+02  0.51100000000E-03 0. -1.
<mgrwt>
<rscale>  0 0.20002087E+02</rscale>
<asrwt>0</asrwt>
<pdfrwt beam="1">  1        4 0.15699745E-01 0.20002087E+02</pdfrwt>
<pdfrwt beam="2">  1       -4 0.15078959E-03 0.20002087E+02</pdfrwt>
<totfact> 0.97138333E+05</totfact>
</mgrwt>
</event>
<event>
 5    1  0.1169053E-006  0.2000142E+02  0.7818608E-02  0.1745300E+00
          4   -1    0    0  501    0  0.00000000000E+00  0.00000000000E+00  0.62054042623E+01  0.63658025463E+01  0.14200000000E+01 0.  1.
         -4   -1    0    0    0  501 -0.00000000000E+00 -0.00000000000E+00 -0.15718812102E+02  0.15782821481E+02  0.14200000000E+01 0. -1.
       1023    2    1    2    0    0  0.00000000000E+00  0.00000000000E+00 -0.95134078400E+01  0.22148624028E+02  0.20001415390E+02 0.  0.
        -11    1    3    3    0    0  0.67156977255E+01 -0.74102825678E+01 -0.47961738468E+01  0.11091265370E+02  0.51100000000E-03 0. -1.
         11    1    3    3    0    0 -0.67156977255E+01  0.74102825678E+01 -0.47172339932E+01  0.11057358658E+02  0.51100000000E-03 0.  1.
<mgrwt>
<rscale>  0 0.20001415E+02</rscale>
<asrwt>0</asrwt>
<pdfrwt beam="1">  1        4 0.97193971E-03 0.20001415E+02</pdfrwt>
<pdfrwt beam="2">  1       -4 0.24355409E-02 0.20001415E+02</pdfrwt>
<totfact> 0.12885746E+06</totfact>
</mgrwt>
</event>
<event>
 5    1  0.1154861E-006  0.2000030E+02  0.7818608E-02  0.1745322E+00
          4   -1    0    0  501    0  0.00000000000E+00  0.00000000000E+00  0.61537953114E+01  0.63155044719E+01  0.14200000000E+01 0. -1.
         -4   -1    0    0    0  501 -0.00000000000E+00 -0.00000000000E+00 -0.15846012299E+02  0.15909509917E+02  0.14200000000E+01 0.  1.
       1023    2    1    2    0    0  0.00000000000E+00  0.00000000000E+00 -0.96922169880E+01  0.22225014389E+02  0.20000304858E+02 0.  0.
        -11    1    3    3    0    0 -0.71952259521E+01  0.69448688605E+01 -0.48196164809E+01  0.11100954161E+02  0.51100000000E-03 0.  1.
         11    1    3    3    0    0  0.71952259521E+01 -0.69448688605E+01 -0.48726005070E+01  0.11124060228E+02  0.51100000000E-03 0. -1.
<mgrwt>
<rscale>  0 0.20000305E+02</rscale>
<asrwt>0</asrwt>
<pdfrwt beam="1">  1        4 0.96406135E-03 0.20000305E+02</pdfrwt>
<pdfrwt beam="2">  1       -4 0.24551716E-02 0.20000305E+02</pdfrwt>
<totfact> 0.12882784E+06</totfact>
</mgrwt>
</event>
<event>
 5    1  0.1157624E-006  0.2000041E+02  0.7818608E-02  0.1745320E+00
          4   -1    0    0  501    0  0.00000000000E+00  0.00000000000E+00  0.99226080415E+01  0.10023699434E+02  0.14200000000E+01 0.  1.
         -4   -1    0    0    0  501 -0.00000000000E+00 -0.00000000000E+00 -0.98751940091E+01  0.99767658446E+01  0.14200000000E+01 0. -1.
       1023    2    1    2    0    0  0.00000000000E+00  0.00000000000E+00  0.47414032338E-01  0.20000465279E+02  0.20000409078E+02 0.  0.
        -11    1    3    3    0    0 -0.92067792167E+01 -0.39035645219E+01  0.62321063137E-01  0.10000324180E+02  0.51100000000E-03 0. -1.
         11    1    3    3    0    0  0.92067792167E+01  0.39035645219E+01 -0.14907030799E-01  0.10000141099E+02  0.51100000000E-03 0.  1.
<mgrwt>
<rscale>  0 0.20000409E+02</rscale>
<asrwt>0</asrwt>
<pdfrwt beam="1">  1        4 0.15421446E-02 0.20000409E+02</pdfrwt>
<pdfrwt beam="2">  1       -4 0.15348501E-02 0.20000409E+02</pdfrwt>
<totfact> 0.13013474E+06</totfact>
</mgrwt>
</event>
<event>
 5    1  0.1154861E-006  0.2000066E+02  0.7818608E-02  0.1745315E+00
         -4   -1    0    0    0  501 -0.00000000000E+00  0.00000000000E+00  0.10969340703E+03  0.10970259772E+03  0.14200000000E+01 0. -1.
          4   -1    0    0  501    0  0.00000000000E+00 -0.00000000000E+00 -0.34384260878E+00  0.14610365292E+01  0.14200000000E+01 0.  1.
       1023    2    1    2    0    0  0.00000000000E+00  0.00000000000E+00  0.10934956442E+03  0.11116363425E+03  0.20000658482E+02 0.  0.
        -11    1    3    3    0    0 -0.93516493468E+01  0.35429493053E+01  0.54826931490E+02  0.55731483492E+02  0.51100000000E-03 0.  1.
         11    1    3    3    0    0  0.93516493468E+01 -0.35429493053E+01  0.54522632933E+02  0.55432150757E+02  0.51100000000E-03 0. -1.
<mgrwt>
<rscale>  0 0.20000658E+02</rscale>
<asrwt>0</asrwt>
<pdfrwt beam="2">  1        4 0.13954387E-03 0.20000658E+02</pdfrwt>
<pdfrwt beam="1">  1       -4 0.16962549E-01 0.20000658E+02</pdfrwt>
<totfact> 0.94936667E+05</totfact>
</mgrwt>
</event>
<event>
 5    1  0.1154861E-006  0.2000079E+02  0.7818608E-02  0.1745312E+00
         -4   -1    0    0    0  501 -0.00000000000E+00  0.00000000000E+00  0.10714448559E+01  0.17788743854E+01  0.14200000000E+01 0. -1.
          4   -1    0    0  501    0  0.00000000000E+00 -0.00000000000E+00 -0.69456632898E+02  0.69471146914E+02  0.14200000000E+01 0.  1.
       1023    2    1    2    0    0  0.00000000000E+00  0.00000000000E+00 -0.68385188042E+02  0.71250021299E+02  0.20000789774E+02 0.  0.
        -11    1    3    3    0    0  0.16642214238E+01 -0.98607329142E+01 -0.34423765777E+02  0.35846887411E+02  0.51100000000E-03 0. -1.
         11    1    3    3    0    0 -0.16642214238E+01  0.98607329142E+01 -0.33961422265E+02  0.35403133888E+02  0.51100000000E-03 0.  1.
<mgrwt>
<rscale>  0 0.20000790E+02</rscale>
<asrwt>0</asrwt>
<pdfrwt beam="2">  1        4 0.10741167E-01 0.20000790E+02</pdfrwt>
<pdfrwt beam="1">  1       -4 0.22037184E-03 0.20000790E+02</pdfrwt>
<totfact> 0.10706043E+06</totfact>
</mgrwt>
</event>
<event>
 5    1  0.1154861E-006  0.2000458E+02  0.7818608E-02  0.1745237E+00
          4   -1    0    0  501    0  0.00000000000E+00  0.00000000000E+00  0.44561449285E+02  0.44584068482E+02  0.14200000000E+01 0.  1.
         -4   -1    0    0    0  501 -0.00000000000E+00 -0.00000000000E+00 -0.19949925255E+01  0.24487538008E+01  0.14200000000E+01 0. -1.
       1023    2    1    2    0    0  0.00000000000E+00  0.00000000000E+00  0.42566456759E+02  0.47032822282E+02  0.20004577746E+02 0.  0.
        -11    1    3    3    0    0  0.77488844322E+01  0.63241053591E+01  0.21469305984E+02  0.23684818307E+02  0.51100000000E-03 0.  1.
         11    1    3    3    0    0 -0.77488844322E+01 -0.63241053591E+01  0.21097150776E+02  0.23348003976E+02  0.51100000000E-03 0. -1.
<mgrwt>
<rscale>  0 0.20004578E+02</rscale>
<asrwt>0</asrwt>
<pdfrwt beam="1">  1        4 0.68922521E-02 0.20004578E+02</pdfrwt>
<pdfrwt beam="2">  1       -4 0.34356659E-03 0.20004578E+02</pdfrwt>
<totfact> 0.11641466E+06</totfact>
</mgrwt>
</event>
<event>
 5    1  0.1190274E-006  0.2000096E+02  0.7818608E-02  0.1745309E+00
         -4   -1    0    0    0  501 -0.00000000000E+00  0.00000000000E+00  0.25534570786E+02  0.25574024033E+02  0.14200000000E+01 0. -1.
          4   -1    0    0  501    0  0.00000000000E+00 -0.00000000000E+00 -0.37439350722E+01  0.40041790451E+01  0.14200000000E+01 0.  1.
       1023    2    1    2    0    0  0.00000000000E+00  0.00000000000E+00  0.21790635714E+02  0.29578203078E+02  0.20000957290E+02 0.  0.
        -11    1    3    3    0    0 -0.14414800227E+01  0.98960434937E+01  0.10887033931E+02  0.14782998666E+02  0.51100000000E-03 0.  1.
         11    1    3    3    0    0  0.14414800227E+01 -0.98960434937E+01  0.10903601783E+02  0.14795204412E+02  0.51100000000E-03 0. -1.
<mgrwt>
<rscale>  0 0.20000957E+02</rscale>
<asrwt>0</asrwt>
<pdfrwt beam="2">  1        4 0.59904363E-03 0.20000957E+02</pdfrwt>
<pdfrwt beam="1">  1       -4 0.39514492E-02 0.20000957E+02</pdfrwt>
<totfact> 0.12476616E+06</totfact>
</mgrwt>
</event>
<event>
 5    1  0.1154861E-006  0.2000027E+02  0.7818608E-02  0.1745323E+00
         -4   -1    0    0    0  501 -0.00000000000E+00  0.00000000000E+00  0.31910444455E+01  0.34927302578E+01  0.14200000000E+01 0. -1.
          4   -1    0    0  501    0  0.00000000000E+00 -0.00000000000E+00 -0.29604534680E+02  0.29638570708E+02  0.14200000000E+01 0.  1.
       1023    2    1    2    0    0  0.00000000000E+00  0.00000000000E+00 -0.26413490235E+02  0.33131300966E+02  0.20000265931E+02 0.  0.
        -11    1    3    3    0    0  0.97769337138E+01 -0.21010031516E+01 -0.13212479803E+02  0.16570222385E+02  0.51100000000E-03 0. -1.
         11    1    3    3    0    0 -0.97769337138E+01  0.21010031516E+01 -0.13201010432E+02  0.16561078581E+02  0.51100000000E-03 0.  1.
<mgrwt>
<rscale>  0 0.20000266E+02</rscale>
<asrwt>0</asrwt>
<pdfrwt beam="2">  1        4 0.45803684E-02 0.20000266E+02</pdfrwt>
<pdfrwt beam="1">  1       -4 0.51675469E-03 0.20000266E+02</pdfrwt>
<totfact> 0.12294749E+06</totfact>
</mgrwt>
</event>
<event>
 5    1  0.1207750E-006  0.2000107E+02  0.7818608E-02  0.1745307E+00
          4   -1    0    0  501    0  0.00000000000E+00  0.00000000000E+00  0.14523957418E+02  0.14593208663E+02  0.14200000000E+01 0.  1.
         -4   -1    0    0    0  501 -0.00000000000E+00 -0.00000000000E+00 -0.67259767283E+01  0.68742390815E+01  0.14200000000E+01 0. -1.
       1023    2    1    2    0    0  0.00000000000E+00  0.00000000000E+00  0.77979806899E+01  0.21467447745E+02  0.20001070217E+02 0.  0.
        -11    1    3    3    0    0  0.84986197400E+01  0.52705979385E+01  0.39745968427E+01  0.10761187687E+02  0.51100000000E-03 0. -1.
         11    1    3    3    0    0 -0.84986197400E+01 -0.52705979385E+01  0.38233838472E+01  0.10706260057E+02  0.51100000000E-03 0.  1.
<mgrwt>
<rscale>  0 0.20001070E+02</rscale>
<asrwt>0</asrwt>
<pdfrwt beam="1">  1        4 0.22511868E-02 0.20001070E+02</pdfrwt>
<pdfrwt beam="2">  1       -4 0.10514975E-02 0.20001070E+02</pdfrwt>
<totfact> 0.12925860E+06</totfact>
</mgrwt>
</event>
<event>
 5    1  0.1154861E-006  0.2000131E+02  0.7818608E-02  0.1745302E+00
          4   -1    0    0  501    0  0.00000000000E+00  0.00000000000E+00  0.16257463358E+01  0.21585761855E+01  0.14200000000E+01 0.  1.
         -4   -1    0    0    0  501 -0.00000000000E+00 -0.00000000000E+00 -0.52312740500E+02  0.52332009503E+02  0.14200000000E+01 0. -1.
       1023    2    1    2    0    0  0.00000000000E+00  0.00000000000E+00 -0.50686994164E+02  0.54490585689E+02  0.20001313739E+02 0.  0.
        -11    1    3    3    0    0  0.67392872980E+01  0.73881052204E+01 -0.25629820013E+02  0.27511629654E+02  0.51100000000E-03 0.  1.
         11    1    3    3    0    0 -0.67392872980E+01 -0.73881052204E+01 -0.25057174151E+02  0.26978956035E+02  0.51100000000E-03 0. -1.
<mgrwt>
<rscale>  0 0.20001314E+02</rscale>
<asrwt>0</asrwt>
<pdfrwt beam="1">  1        4 0.29258400E-03 0.20001314E+02</pdfrwt>
<pdfrwt beam="2">  1       -4 0.80905820E-02 0.20001314E+02</pdfrwt>
<totfact> 0.11333887E+06</totfact>
</mgrwt>
</event>
<event>
 5    1  0.1154861E-006  0.2000061E+02  0.7818608E-02  0.1745316E+00
          4   -1    0    0  501    0  0.00000000000E+00  0.00000000000E+00  0.12464818682E+01  0.18894753366E+01  0.14200000000E+01 0.  1.
         -4   -1    0    0    0  501 -0.00000000000E+00 -0.00000000000E+00 -0.63127638891E+02  0.63143607689E+02  0.14200000000E+01 0. -1.
       1023    2    1    2    0    0  0.00000000000E+00  0.00000000000E+00 -0.61881157023E+02  0.65033083025E+02  0.20000607323E+02 0.  0.
        -11    1    3    3    0    0 -0.95183594947E+01  0.30670303885E+01 -0.30989911099E+02  0.32563483122E+02  0.51100000000E-03 0.  1.
         11    1    3    3    0    0  0.95183594947E+01 -0.30670303885E+01 -0.30891245924E+02  0.32469599903E+02  0.51100000000E-03 0. -1.
<mgrwt>
<rscale>  0 0.20000607E+02</rscale>
<asrwt>0</asrwt>
<pdfrwt beam="1">  1        4 0.24245589E-03 0.20000607E+02</pdfrwt>
<pdfrwt beam="2">  1       -4 0.97626319E-02 0.20000607E+02</pdfrwt>
<totfact> 0.10929083E+06</totfact>
</mgrwt>
</event>
<event>
 5    1  0.1154861E-006  0.2000155E+02  0.7818608E-02  0.1745297E+00
         -4   -1    0    0    0  501 -0.00000000000E+00  0.00000000000E+00  0.74642433131E+02  0.74655938971E+02  0.14200000000E+01 0. -1.
          4   -1    0    0  501    0  0.00000000000E+00 -0.00000000000E+00 -0.94617649686E+00  0.17063557552E+01  0.14200000000E+01 0.  1.
       1023    2    1    2    0    0  0.00000000000E+00  0.00000000000E+00  0.73696256634E+02  0.76362294727E+02  0.20001545291E+02 0.  0.
        -11    1    3    3    0    0  0.21884454751E+01  0.97579084532E+01  0.37217930425E+02  0.38538038564E+02  0.51100000000E-03 0.  1.
         11    1    3    3    0    0 -0.21884454751E+01 -0.97579084532E+01  0.36478326209E+02  0.37824256162E+02  0.51100000000E-03 0. -1.
<mgrwt>
<rscale>  0 0.20001545E+02</rscale>
<asrwt>0</asrwt>
<pdfrwt beam="2">  1        4 0.20507983E-03 0.20001545E+02</pdfrwt>
<pdfrwt beam="1">  1       -4 0.11542967E-01 0.20001545E+02</pdfrwt>
<totfact> 0.10530073E+06</totfact>
</mgrwt>
</event>
<event>
 5    1  0.1217210E-006  0.2000094E+02  0.7818608E-02  0.1745309E+00
          4   -1    0    0  501    0  0.00000000000E+00  0.00000000000E+00  0.18705334209E+02  0.18759155841E+02  0.14200000000E+01 0.  1.
         -4   -1    0    0    0  501 -0.00000000000E+00 -0.00000000000E+00 -0.51895445170E+01  0.53803134011E+01  0.14200000000E+01 0. -1.
       1023    2    1    2    0    0  0.00000000000E+00  0.00000000000E+00  0.13515789692E+02  0.24139469242E+02  0.20000935086E+02 0.  0.
        -11    1    3    3    0    0 -0.25686014880E+01  0.96644911405E+01  0.68739611425E+01  0.12134720625E+02  0.51100000000E-03 0. -1.
         11    1    3    3    0    0  0.25686014880E+01 -0.96644911405E+01  0.66418285497E+01  0.12004748617E+02  0.51100000000E-03 0.  1.
<mgrwt>
<rscale>  0 0.20000935E+02</rscale>
<asrwt>0</asrwt>
<pdfrwt beam="1">  1        4 0.28965584E-02 0.20000935E+02</pdfrwt>
<pdfrwt beam="2">  1       -4 0.81720612E-03 0.20000935E+02</pdfrwt>
<totfact> 0.12772683E+06</totfact>
</mgrwt>
</event>
<event>
 5    1  0.1165928E-006  0.2000047E+02  0.7818608E-02  0.1745319E+00
         -4   -1    0    0    0  501 -0.00000000000E+00  0.00000000000E+00  0.11186314404E+02  0.11276082207E+02  0.14200000000E+01 0. -1.
          4   -1    0    0  501    0  0.00000000000E+00 -0.00000000000E+00 -0.87570013632E+01  0.88713850595E+01  0.14200000000E+01 0.  1.
       1023    2    1    2    0    0  0.00000000000E+00  0.00000000000E+00  0.24293130410E+01  0.20147467267E+02  0.20000471880E+02 0.  0.
        -11    1    3    3    0    0 -0.19345849854E+01 -0.98112204220E+01  0.12603035666E+01  0.10079237599E+02  0.51100000000E-03 0. -1.
         11    1    3    3    0    0  0.19345849854E+01  0.98112204220E+01  0.11690094744E+01  0.10068229668E+02  0.51100000000E-03 0.  1.
<mgrwt>
<rscale>  0 0.20000472E+02</rscale>
<asrwt>0</asrwt>
<pdfrwt beam="2">  1        4 0.13629349E-02 0.20000472E+02</pdfrwt>
<pdfrwt beam="1">  1       -4 0.17366754E-02 0.20000472E+02</pdfrwt>
<totfact> 0.13004652E+06</totfact>
</mgrwt>
</event>
<event>
 5    1  0.1154861E-006  0.2000685E+02  0.7818608E-02  0.1745192E+00
          4   -1    0    0  501    0  0.00000000000E+00  0.00000000000E+00  0.95729063777E+02  0.95739595004E+02  0.14200000000E+01 0. -1.
         -4   -1    0    0    0  501 -0.00000000000E+00 -0.00000000000E+00 -0.54752779554E+00  0.15219023250E+01  0.14200000000E+01 0.  1.
       1023    2    1    2    0    0  0.00000000000E+00  0.00000000000E+00  0.95181535981E+02  0.97261497329E+02  0.20006850601E+02 0.  0.
        -11    1    3    3    0    0  0.84680553787E+01  0.53222601123E+01  0.48488522889E+02  0.49509304851E+02  0.51100000000E-03 0.  1.
         11    1    3    3    0    0 -0.84680553787E+01 -0.53222601123E+01  0.46693013092E+02  0.47752192479E+02  0.51100000000E-03 0. -1.
<mgrwt>
<rscale>  0 0.20006851E+02</rscale>
<asrwt>0</asrwt>
<pdfrwt beam="1">  1        4 0.14803316E-01 0.20006851E+02</pdfrwt>
<pdfrwt beam="2">  1       -4 0.15999697E-03 0.20006851E+02</pdfrwt>
<totfact> 0.98731809E+05</totfact>
</mgrwt>
</event>
<event>
 5    1  0.1154861E-006  0.2000360E+02  0.7818608E-02  0.1745256E+00
         -4   -1    0    0    0  501 -0.00000000000E+00  0.00000000000E+00  0.11781065982E+03  0.11781921731E+03  0.14200000000E+01 0. -1.
          4   -1    0    0  501    0  0.00000000000E+00 -0.00000000000E+00 -0.24076415848E+00  0.14402664267E+01  0.14200000000E+01 0.  1.
       1023    2    1    2    0    0  0.00000000000E+00  0.00000000000E+00  0.11756989566E+03  0.11925948373E+03  0.20003602050E+02 0.  0.
        -11    1    3    3    0    0  0.87755704763E+01  0.47962088451E+01  0.57905350075E+02  0.58762605661E+02  0.51100000000E-03 0. -1.
         11    1    3    3    0    0 -0.87755704763E+01 -0.47962088451E+01  0.59664545584E+02  0.60496878072E+02  0.51100000000E-03 0.  1.
<mgrwt>
<rscale>  0 0.20003602E+02</rscale>
<asrwt>0</asrwt>
<pdfrwt beam="2">  1        4 0.12996842E-03 0.20003602E+02</pdfrwt>
<pdfrwt beam="1">  1       -4 0.18217629E-01 0.20003602E+02</pdfrwt>
<totfact> 0.92811755E+05</totfact>
</mgrwt>
</event>
<event>
 5    1  0.1154861E-006  0.2001065E+02  0.7818608E-02  0.1745116E+00
         -4   -1    0    0    0  501 -0.00000000000E+00  0.00000000000E+00  0.19527116525E+02  0.19578679214E+02  0.14200000000E+01 0.  1.
          4   -1    0    0  501    0  0.00000000000E+00 -0.00000000000E+00 -0.49686212840E+01  0.51675523668E+01  0.14200000000E+01 0. -1.
       1023    2    1    2    0    0  0.00000000000E+00  0.00000000000E+00  0.14558495241E+02  0.24746231581E+02  0.20010652008E+02 0.  0.
        -11    1    3    3    0    0 -0.79217954074E+01 -0.61052416254E+01  0.76240285949E+01  0.12575954439E+02  0.51100000000E-03 0. -1.
         11    1    3    3    0    0  0.79217954074E+01  0.61052416254E+01  0.69344666457E+01  0.12170277142E+02  0.51100000000E-03 0.  1.
<mgrwt>
<rscale>  0 0.20010652E+02</rscale>
<asrwt>0</asrwt>
<pdfrwt beam="2">  1        4 0.78367201E-03 0.20010652E+02</pdfrwt>
<pdfrwt beam="1">  1       -4 0.30234406E-02 0.20010652E+02</pdfrwt>
<totfact> 0.12725976E+06</totfact>
</mgrwt>
</event>
<event>
 5    1  0.1189579E-006  0.2000067E+02  0.7818608E-02  0.1745315E+00
          4   -1    0    0  501    0  0.00000000000E+00  0.00000000000E+00  0.57334260650E+01  0.59066550976E+01  0.14200000000E+01 0. -1.
         -4   -1    0    0    0  501 -0.00000000000E+00 -0.00000000000E+00 -0.16979858452E+02  0.17039131230E+02  0.14200000000E+01 0.  1.
       1023    2    1    2    0    0  0.00000000000E+00  0.00000000000E+00 -0.11246432387E+02  0.22945786327E+02  0.20000671707E+02 0.  0.
        -11    1    3    3    0    0  0.95068591564E+01  0.31022493723E+01 -0.56793580852E+01  0.11500410024E+02  0.51100000000E-03 0. -1.
         11    1    3    3    0    0 -0.95068591564E+01 -0.31022493723E+01 -0.55670743021E+01  0.11445376304E+02  0.51100000000E-03 0.  1.
<mgrwt>
<rscale>  0 0.20000672E+02</rscale>
<asrwt>0</asrwt>
<pdfrwt beam="1">  1        4 0.89995031E-03 0.20000672E+02</pdfrwt>
<pdfrwt beam="2">  1       -4 0.26301706E-02 0.20000672E+02</pdfrwt>
<totfact> 0.12840801E+06</totfact>
</mgrwt>
</event>
<event>
 4    1  0.1554518E-006  0.2059266E+02  0.7818608E-02  0.1733793E+00
          4   -1    0    0  501    0  0.00000000000E+00  0.00000000000E+00  0.37111589195E+02  0.37138745974E+02  0.14200000000E+01 0.  1.
         -4   -1    0    0    0  501 -0.00000000000E+00 -0.00000000000E+00 -0.26501436329E+01  0.30066029460E+01  0.14200000000E+01 0. -1.
        -11    1    1    2    0    0  0.83974649446E+01  0.58236110192E+01  0.14778235145E+02  0.17967417651E+02  0.51100000000E-03 0. -1.
         11    1    1    2    0    0 -0.83974649446E+01 -0.58236110192E+01  0.19683210417E+02  0.22177931269E+02  0.51100000000E-03 0.  1.
<mgrwt>
<rscale>  0 0.20592664E+02</rscale>
<asrwt>0</asrwt>
<pdfrwt beam="1">  1        4 0.57389841E-02 0.20592664E+02</pdfrwt>
<pdfrwt beam="2">  1       -4 0.43722334E-03 0.20592664E+02</pdfrwt>
<totfact> 0.11265007E+06</totfact>
</mgrwt>
</event>
<event>
 5    1  0.1154861E-006  0.2000584E+02  0.7818608E-02  0.1745212E+00
         -4   -1    0    0    0  501 -0.00000000000E+00  0.00000000000E+00  0.65799564206E+02  0.65814884712E+02  0.14200000000E+01 0. -1.
          4   -1    0    0  501    0  0.00000000000E+00 -0.00000000000E+00 -0.11701942685E+01  0.18400420175E+01  0.14200000000E+01 0.  1.
       1023    2    1    2    0    0  0.00000000000E+00  0.00000000000E+00  0.64629369937E+02  0.67654926730E+02  0.20005840455E+02 0.  0.
        -11    1    3    3    0    0 -0.89665281481E+01 -0.44318584015E+01  0.32773619563E+02  0.34265874211E+02  0.51100000000E-03 0. -1.
         11    1    3    3    0    0  0.89665281481E+01  0.44318584015E+01  0.31855750374E+02  0.33389052518E+02  0.51100000000E-03 0.  1.
<mgrwt>
<rscale>  0 0.20005840E+02</rscale>
<asrwt>0</asrwt>
<pdfrwt beam="2">  1        4 0.23273521E-03 0.20005840E+02</pdfrwt>
<pdfrwt beam="1">  1       -4 0.10175712E-01 0.20005840E+02</pdfrwt>
<totfact> 0.10828030E+06</totfact>
</mgrwt>
</event>
<event>
 5    1  0.1166795E-006  0.2000056E+02  0.7818608E-02  0.1745317E+00
         -4   -1    0    0    0  501 -0.00000000000E+00  0.00000000000E+00  0.98979530284E+01  0.99992936827E+01  0.14200000000E+01 0. -1.
          4   -1    0    0  501    0  0.00000000000E+00 -0.00000000000E+00 -0.98999500250E+01  0.10001270444E+02  0.14200000000E+01 0.  1.
       1023    2    1    2    0    0  0.00000000000E+00  0.00000000000E+00 -0.19969965756E-02  0.20000564127E+02  0.20000564027E+02 0.  0.
        -11    1    3    3    0    0  0.53063466764E+01  0.84762896023E+01 -0.29974665312E-01  0.10000284957E+02  0.51100000000E-03 0. -1.
         11    1    3    3    0    0 -0.53063466764E+01 -0.84762896023E+01  0.27977668736E-01  0.10000279170E+02  0.51100000000E-03 0.  1.
<mgrwt>
<rscale>  0 0.20000564E+02</rscale>
<asrwt>0</asrwt>
<pdfrwt beam="2">  1        4 0.15386585E-02 0.20000564E+02</pdfrwt>
<pdfrwt beam="1">  1       -4 0.15383513E-02 0.20000564E+02</pdfrwt>
<totfact> 0.13013262E+06</totfact>
</mgrwt>
</event>
<event>
 4    1  0.1154861E-006  0.2003153E+02  0.7818608E-02  0.1744702E+00
         -4   -1    0    0    0  501 -0.00000000000E+00  0.00000000000E+00  0.87264768038E+00  0.16667075251E+01  0.14200000000E+01 0.  1.
          4   -1    0    0  501    0  0.00000000000E+00 -0.00000000000E+00 -0.78206150553E+02  0.78219041059E+02  0.14200000000E+01 0. -1.
        -11    1    1    2    0    0 -0.12069507005E+01 -0.99399482087E+01 -0.39612500165E+02  0.40858407580E+02  0.51100000000E-03 0.  1.
         11    1    1    2    0    0  0.12069507005E+01  0.99399482087E+01 -0.37721002707E+02  0.39027341004E+02  0.51100000000E-03 0. -1.
<mgrwt>
<rscale>  0 0.20031529E+02</rscale>
<asrwt>0</asrwt>
<pdfrwt beam="2">  1        4 0.12093785E-01 0.20031529E+02</pdfrwt>
<pdfrwt beam="1">  1       -4 0.19632665E-03 0.20031529E+02</pdfrwt>
<totfact> 0.10382093E+06</totfact>
</mgrwt>
</event>
<event>
 5    1  0.1154861E-006  0.2000067E+02  0.7818608E-02  0.1745315E+00
          4   -1    0    0  501    0  0.00000000000E+00  0.00000000000E+00  0.13111540501E+01  0.19327506158E+01  0.14200000000E+01 0.  1.
         -4   -1    0    0    0  501 -0.00000000000E+00 -0.00000000000E+00 -0.61026800074E+02  0.61043318449E+02  0.14200000000E+01 0. -1.
       1023    2    1    2    0    0  0.00000000000E+00  0.00000000000E+00 -0.59715646024E+02  0.62976069065E+02  0.20000672359E+02 0.  0.
        -11    1    3    3    0    0  0.86178725586E+00  0.99628138951E+01 -0.30109432507E+02  0.31726617597E+02  0.51100000000E-03 0. -1.
         11    1    3    3    0    0 -0.86178725586E+00 -0.99628138951E+01 -0.29606213517E+02  0.31249451468E+02  0.51100000000E-03 0.  1.
<mgrwt>
<rscale>  0 0.20000672E+02</rscale>
<asrwt>0</asrwt>
<pdfrwt beam="1">  1        4 0.25080182E-03 0.20000672E+02</pdfrwt>
<pdfrwt beam="2">  1       -4 0.94378225E-02 0.20000672E+02</pdfrwt>
<totfact> 0.11005310E+06</totfact>
</mgrwt>
</event>
<event>
 5    1  0.1225233E-006  0.2000125E+02  0.7818608E-02  0.1745303E+00
         -4   -1    0    0    0  501 -0.00000000000E+00  0.00000000000E+00  0.12538977950E+02  0.12619127071E+02  0.14200000000E+01 0.  1.
          4   -1    0    0  501    0  0.00000000000E+00 -0.00000000000E+00 -0.78063145895E+01  0.79344153830E+01  0.14200000000E+01 0. -1.
       1023    2    1    2    0    0  0.00000000000E+00  0.00000000000E+00  0.47326633607E+01  0.20553542454E+02  0.20001250084E+02 0.  0.
        -11    1    3    3    0    0  0.99930099527E+01 -0.38572340226E+00  0.24268694344E+01  0.10290710664E+02  0.51100000000E-03 0. -1.
         11    1    3    3    0    0 -0.99930099527E+01  0.38572340226E+00  0.23057939263E+01  0.10262831790E+02  0.51100000000E-03 0.  1.
<mgrwt>
<rscale>  0 0.20001250E+02</rscale>
<asrwt>0</asrwt>
<pdfrwt beam="2">  1        4 0.12169907E-02 0.20001250E+02</pdfrwt>
<pdfrwt beam="1">  1       -4 0.19450927E-02 0.20001250E+02</pdfrwt>
<totfact> 0.12979497E+06</totfact>
</mgrwt>
</event>
<event>
 5    1  0.1161355E-006  0.2000135E+02  0.7818608E-02  0.1745301E+00
          4   -1    0    0  501    0  0.00000000000E+00  0.00000000000E+00  0.28045885801E+01  0.31435834813E+01  0.14200000000E+01 0. -1.
         -4   -1    0    0    0  501 -0.00000000000E+00 -0.00000000000E+00 -0.33273302760E+02  0.33303589544E+02  0.14200000000E+01 0.  1.
       1023    2    1    2    0    0  0.00000000000E+00  0.00000000000E+00 -0.30468714179E+02  0.36447173025E+02  0.20001346900E+02 0.  0.
        -11    1    3    3    0    0  0.19502379644E+01  0.98086533075E+01 -0.15268997044E+02  0.18252544447E+02  0.51100000000E-03 0. -1.
         11    1    3    3    0    0 -0.19502379644E+01 -0.98086533075E+01 -0.15199717136E+02  0.18194628578E+02  0.51100000000E-03 0.  1.
<mgrwt>
<rscale>  0 0.20001347E+02</rscale>
<asrwt>0</asrwt>
<pdfrwt beam="1">  1        4 0.45988147E-03 0.20001347E+02</pdfrwt>
<pdfrwt beam="2">  1       -4 0.51473757E-02 0.20001347E+02</pdfrwt>
<totfact> 0.12129636E+06</totfact>
</mgrwt>
</event>
<event>
 5    1  0.1154861E-006  0.2000037E+02  0.7818608E-02  0.1745321E+00
          4   -1    0    0  501    0  0.00000000000E+00  0.00000000000E+00  0.10993948297E+01  0.17958477083E+01  0.14200000000E+01 0.  1.
         -4   -1    0    0    0  501 -0.00000000000E+00 -0.00000000000E+00 -0.68375799513E+02  0.68390542907E+02  0.14200000000E+01 0. -1.
       1023    2    1    2    0    0  0.00000000000E+00  0.00000000000E+00 -0.67276404684E+02  0.70186390615E+02  0.20000370007E+02 0.  0.
        -11    1    3    3    0    0 -0.18766246138E+01 -0.98224600123E+01 -0.33762729434E+02  0.35212559403E+02  0.51100000000E-03 0. -1.
         11    1    3    3    0    0  0.18766246138E+01  0.98224600123E+01 -0.33513675250E+02  0.34973831212E+02  0.51100000000E-03 0.  1.
<mgrwt>
<rscale>  0 0.20000370E+02</rscale>
<asrwt>0</asrwt>
<pdfrwt beam="1">  1        4 0.22384513E-03 0.20000370E+02</pdfrwt>
<pdfrwt beam="2">  1       -4 0.10574059E-01 0.20000370E+02</pdfrwt>
<totfact> 0.10743827E+06</totfact>
</mgrwt>
</event>
<event>
 5    1  0.1154861E-006  0.2000028E+02  0.7818608E-02  0.1745323E+00
          4   -1    0    0  501    0  0.00000000000E+00  0.00000000000E+00  0.47687229877E+01  0.49756526138E+01  0.14200000000E+01 0. -1.
         -4   -1    0    0    0  501 -0.00000000000E+00 -0.00000000000E+00 -0.20292964861E+02  0.20342586434E+02  0.14200000000E+01 0.  1.
       1023    2    1    2    0    0  0.00000000000E+00  0.00000000000E+00 -0.15524241873E+02  0.25318239048E+02  0.20000278567E+02 0.  0.
        -11    1    3    3    0    0  0.72910797224E+01  0.68441831025E+01 -0.77747527378E+01  0.12666864894E+02  0.51100000000E-03 0. -1.
         11    1    3    3    0    0 -0.72910797224E+01 -0.68441831025E+01 -0.77494891350E+01  0.12651374154E+02  0.51100000000E-03 0.  1.
<mgrwt>
<rscale>  0 0.20000279E+02</rscale>
<asrwt>0</asrwt>
<pdfrwt beam="1">  1        4 0.75338441E-03 0.20000279E+02</pdfrwt>
<pdfrwt beam="2">  1       -4 0.31417293E-02 0.20000279E+02</pdfrwt>
<totfact> 0.12707513E+06</totfact>
</mgrwt>
</event>
<event>
 5    1  0.1154861E-006  0.2000150E+02  0.7818608E-02  0.1745298E+00
         -4   -1    0    0    0  501 -0.00000000000E+00  0.00000000000E+00  0.74644999382E+00  0.16042405036E+01  0.14200000000E+01 0.  1.
          4   -1    0    0  501    0  0.00000000000E+00 -0.00000000000E+00 -0.84228229571E+02  0.84240198580E+02  0.14200000000E+01 0. -1.
       1023    2    1    2    0    0  0.00000000000E+00  0.00000000000E+00 -0.83481779578E+02  0.85844439083E+02  0.20001504945E+02 0.  0.
        -11    1    3    3    0    0  0.11044260143E+01  0.99391014824E+01 -0.42160414020E+02  0.43330197389E+02  0.51100000000E-03 0. -1.
         11    1    3    3    0    0 -0.11044260143E+01 -0.99391014824E+01 -0.41321365557E+02  0.42514241695E+02  0.51100000000E-03 0.  1.
<mgrwt>
<rscale>  0 0.20001505E+02</rscale>
<asrwt>0</asrwt>
<pdfrwt beam="2">  1        4 0.13025089E-01 0.20001505E+02</pdfrwt>
<pdfrwt beam="1">  1       -4 0.18174310E-03 0.20001505E+02</pdfrwt>
<totfact> 0.10222604E+06</totfact>
</mgrwt>
</event>
<event>
 5    1  0.1154861E-006  0.2000320E+02  0.7818608E-02  0.1745264E+00
         -4   -1    0    0    0  501 -0.00000000000E+00  0.00000000000E+00  0.11971050990E+03  0.11971893159E+03  0.14200000000E+01 0. -1.
          4   -1    0    0  501    0  0.00000000000E+00 -0.00000000000E+00 -0.21769684228E+00  0.14365903783E+01  0.14200000000E+01 0.  1.
       1023    2    1    2    0    0  0.00000000000E+00  0.00000000000E+00  0.11949281306E+03  0.12115552197E+03  0.20003203005E+02 0.  0.
        -11    1    3    3    0    0  0.40887768969E+01 -0.91271984282E+01  0.60294361420E+02  0.61118195874E+02  0.51100000000E-03 0. -1.
         11    1    3    3    0    0 -0.40887768969E+01  0.91271984282E+01  0.59198451641E+02  0.60037326095E+02  0.51100000000E-03 0.  1.
<mgrwt>
<rscale>  0 0.20003203E+02</rscale>
<asrwt>0</asrwt>
<pdfrwt beam="2">  1        4 0.12790074E-03 0.20003203E+02</pdfrwt>
<pdfrwt beam="1">  1       -4 0.18511403E-01 0.20003203E+02</pdfrwt>
<totfact> 0.92338716E+05</totfact>
</mgrwt>
</event>
<event>
 5    1  0.1154861E-006  0.2000771E+02  0.7818608E-02  0.1745175E+00
          4   -1    0    0  501    0  0.00000000000E+00  0.00000000000E+00  0.20785443999E+01  0.25172895786E+01  0.14200000000E+01 0. -1.
         -4   -1    0    0    0  501 -0.00000000000E+00 -0.00000000000E+00 -0.43099687418E+02  0.43123073355E+02  0.14200000000E+01 0.  1.
       1023    2    1    2    0    0  0.00000000000E+00  0.00000000000E+00 -0.41021143018E+02  0.45640362933E+02  0.20007712367E+02 0.  0.
        -11    1    3    3    0    0  0.99414925953E+01  0.11007540174E+01 -0.20101211391E+02  0.22452252317E+02  0.51100000000E-03 0.  1.
         11    1    3    3    0    0 -0.99414925953E+01 -0.11007540174E+01 -0.20919931627E+02  0.23188110617E+02  0.51100000000E-03 0. -1.
<mgrwt>
<rscale>  0 0.20007712E+02</rscale>
<asrwt>0</asrwt>
<pdfrwt beam="1">  1        4 0.35532464E-03 0.20007712E+02</pdfrwt>
<pdfrwt beam="2">  1       -4 0.66662691E-02 0.20007712E+02</pdfrwt>
<totfact> 0.11698469E+06</totfact>
</mgrwt>
</event>
<event>
 5    1  0.1154861E-006  0.2000575E+02  0.7818608E-02  0.1745214E+00
         -4   -1    0    0    0  501 -0.00000000000E+00  0.00000000000E+00  0.33436061877E+02  0.33466201365E+02  0.14200000000E+01 0.  1.
          4   -1    0    0  501    0  0.00000000000E+00 -0.00000000000E+00 -0.27906899504E+01  0.31311899334E+01  0.14200000000E+01 0. -1.
       1023    2    1    2    0    0  0.00000000000E+00  0.00000000000E+00  0.30645371926E+02  0.36597391299E+02  0.20005754906E+02 0.  0.
        -11    1    3    3    0    0  0.75450744653E+01  0.65634554604E+01  0.15733620178E+02  0.18642797549E+02  0.51100000000E-03 0. -1.
         11    1    3    3    0    0 -0.75450744653E+01 -0.65634554604E+01  0.14911751748E+02  0.17954593750E+02  0.51100000000E-03 0.  1.
<mgrwt>
<rscale>  0 0.20005755E+02</rscale>
<asrwt>0</asrwt>
<pdfrwt beam="2">  1        4 0.45784767E-03 0.20005755E+02</pdfrwt>
<pdfrwt beam="1">  1       -4 0.51725199E-02 0.20005755E+02</pdfrwt>
<totfact> 0.12116954E+06</totfact>
</mgrwt>
</event>
<event>
 4    1  0.1154861E-006  0.2001792E+02  0.7818608E-02  0.1744972E+00
          4   -1    0    0  501    0  0.00000000000E+00  0.00000000000E+00  0.37772088210E+01  0.40353074824E+01  0.14200000000E+01 0. -1.
         -4   -1    0    0    0  501 -0.00000000000E+00 -0.00000000000E+00 -0.25367227314E+02  0.25406940421E+02  0.14200000000E+01 0.  1.
        -11    1    1    2    0    0  0.85798260025E+01 -0.51517954132E+01 -0.11026888345E+02  0.14891161038E+02  0.51100000000E-03 0. -1.
         11    1    1    2    0    0 -0.85798260025E+01  0.51517954132E+01 -0.10563130147E+02  0.14551086866E+02  0.51100000000E-03 0.  1.
<mgrwt>
<rscale>  0 0.20017919E+02</rscale>
<asrwt>0</asrwt>
<pdfrwt beam="1">  1        4 0.60401766E-03 0.20017919E+02</pdfrwt>
<pdfrwt beam="2">  1       -4 0.39255589E-02 0.20017919E+02</pdfrwt>
<totfact> 0.12462269E+06</totfact>
</mgrwt>
</event>
<event>
 5    1  0.1154861E-006  0.2000030E+02  0.7818608E-02  0.1745322E+00
         -4   -1    0    0    0  501 -0.00000000000E+00  0.00000000000E+00  0.19860904627E+02  0.19911602964E+02  0.14200000000E+01 0. -1.
          4   -1    0    0  501    0  0.00000000000E+00 -0.00000000000E+00 -0.48766549480E+01  0.50791892544E+01  0.14200000000E+01 0.  1.
       1023    2    1    2    0    0  0.00000000000E+00  0.00000000000E+00  0.14984249679E+02  0.24990792219E+02  0.20000298930E+02 0.  0.
        -11    1    3    3    0    0  0.35330481109E+01 -0.93550905272E+01  0.74255201990E+01  0.12455460578E+02  0.51100000000E-03 0.  1.
         11    1    3    3    0    0 -0.35330481109E+01  0.93550905272E+01  0.75587294802E+01  0.12535331641E+02  0.51100000000E-03 0. -1.
<mgrwt>
<rscale>  0 0.20000299E+02</rscale>
<asrwt>0</asrwt>
<pdfrwt beam="2">  1        4 0.76973402E-03 0.20000299E+02</pdfrwt>
<pdfrwt beam="1">  1       -4 0.30750033E-02 0.20000299E+02</pdfrwt>
<totfact> 0.12725723E+06</totfact>
</mgrwt>
</event>
<event>
 5    1  0.1154861E-006  0.2000022E+02  0.7818608E-02  0.1745324E+00
         -4   -1    0    0    0  501 -0.00000000000E+00  0.00000000000E+00  0.82625546606E+01  0.83836871077E+01  0.14200000000E+01 0.  1.
          4   -1    0    0  501    0  0.00000000000E+00 -0.00000000000E+00 -0.11851158657E+02  0.11935927342E+02  0.14200000000E+01 0. -1.
       1023    2    1    2    0    0  0.00000000000E+00  0.00000000000E+00 -0.35886039960E+01  0.20319614449E+02  0.20000216317E+02 0.  0.
        -11    1    3    3    0    0  0.74818352225E+01  0.66350786517E+01 -0.17882137266E+01  0.10158731988E+02  0.51100000000E-03 0.  1.
         11    1    3    3    0    0 -0.74818352225E+01 -0.66350786517E+01 -0.18003902694E+01  0.10160882461E+02  0.51100000000E-03 0. -1.
<mgrwt>
<rscale>  0 0.20000216E+02</rscale>
<asrwt>0</asrwt>
<pdfrwt beam="2">  1        4 0.18390937E-02 0.20000216E+02</pdfrwt>
<pdfrwt beam="1">  1       -4 0.12870008E-02 0.20000216E+02</pdfrwt>
<totfact> 0.12994735E+06</totfact>
</mgrwt>
</event>
<event>
 4    1  0.1154861E-006  0.2001727E+02  0.7818608E-02  0.1744985E+00
          4   -1    0    0  501    0  0.00000000000E+00  0.00000000000E+00  0.95795190507E+01  0.96841925447E+01  0.14200000000E+01 0.  1.
         -4   -1    0    0    0  501 -0.00000000000E+00 -0.00000000000E+00 -0.10246251684E+02  0.10344180662E+02  0.14200000000E+01 0. -1.
        -11    1    1    2    0    0 -0.58463033897E+01 -0.81234981008E+01 -0.28522259959E+00  0.10012583928E+02  0.51100000000E-03 0.  1.
         11    1    1    2    0    0  0.58463033897E+01  0.81234981008E+01 -0.38151003370E+00  0.10015789279E+02  0.51100000000E-03 0. -1.
<mgrwt>
<rscale>  0 0.20017273E+02</rscale>
<asrwt>0</asrwt>
<pdfrwt beam="1">  1        4 0.14893570E-02 0.20017273E+02</pdfrwt>
<pdfrwt beam="2">  1       -4 0.15919312E-02 0.20017273E+02</pdfrwt>
<totfact> 0.12989440E+06</totfact>
</mgrwt>
</event>
<event>
 5    1  0.1178382E-006  0.2000113E+02  0.7818608E-02  0.1745306E+00
          4   -1    0    0  501    0  0.00000000000E+00  0.00000000000E+00  0.14458717665E+01  0.20265599338E+01  0.14200000000E+01 0. -1.
         -4   -1    0    0    0  501 -0.00000000000E+00 -0.00000000000E+00 -0.57012040873E+02  0.57029722114E+02  0.14200000000E+01 0.  1.
       1023    2    1    2    0    0  0.00000000000E+00  0.00000000000E+00 -0.55566169106E+02  0.59056282048E+02  0.20001132474E+02 0.  0.
        -11    1    3    3    0    0 -0.11339183381E+01 -0.99360591717E+01 -0.27733488969E+02  0.29481476444E+02  0.51100000000E-03 0.  1.
         11    1    3    3    0    0  0.11339183381E+01  0.99360591717E+01 -0.27832680137E+02  0.29574805604E+02  0.51100000000E-03 0. -1.
<mgrwt>
<rscale>  0 0.20001132E+02</rscale>
<asrwt>0</asrwt>
<pdfrwt beam="1">  1        4 0.26847027E-03 0.20001132E+02</pdfrwt>
<pdfrwt beam="2">  1       -4 0.88171102E-02 0.20001132E+02</pdfrwt>
<totfact> 0.11153939E+06</totfact>
</mgrwt>
</event>
<event>
 5    1  0.1154861E-006  0.2000061E+02  0.7818608E-02  0.1745316E+00
         -4   -1    0    0    0  501 -0.00000000000E+00  0.00000000000E+00  0.60560121309E+02  0.60576766941E+02  0.14200000000E+01 0. -1.
          4   -1    0    0  501    0  0.00000000000E+00 -0.00000000000E+00 -0.13260131217E+01  0.19428614976E+01  0.14200000000E+01 0.  1.
       1023    2    1    2    0    0  0.00000000000E+00  0.00000000000E+00  0.59234108188E+02  0.62519628438E+02  0.20000609173E+02 0.  0.
        -11    1    3    3    0    0  0.30222067817E+01 -0.95326884124E+01  0.29571824677E+02  0.31216961690E+02  0.51100000000E-03 0.  1.
         11    1    3    3    0    0 -0.30222067817E+01  0.95326884124E+01  0.29662283511E+02  0.31302666748E+02  0.51100000000E-03 0. -1.
<mgrwt>
<rscale>  0 0.20000609E+02</rscale>
<asrwt>0</asrwt>
<pdfrwt beam="2">  1        4 0.25273238E-03 0.20000609E+02</pdfrwt>
<pdfrwt beam="1">  1       -4 0.93656699E-02 0.20000609E+02</pdfrwt>
<totfact> 0.11022492E+06</totfact>
</mgrwt>
</event>
<event>
 5    1  0.1154861E-006  0.2000106E+02  0.7818608E-02  0.1745307E+00
         -4   -1    0    0    0  501 -0.00000000000E+00  0.00000000000E+00  0.23124752855E+01  0.27136584063E+01  0.14200000000E+01 0.  1.
          4   -1    0    0  501    0  0.00000000000E+00 -0.00000000000E+00 -0.39381236516E+02  0.39406829224E+02  0.14200000000E+01 0. -1.
       1023    2    1    2    0    0  0.00000000000E+00  0.00000000000E+00 -0.37068761230E+02  0.42120487631E+02  0.20001060449E+02 0.  0.
        -11    1    3    3    0    0  0.39335583206E+01  0.91939754682E+01 -0.18728975854E+02  0.21231500248E+02  0.51100000000E-03 0.  1.
         11    1    3    3    0    0 -0.39335583206E+01 -0.91939754682E+01 -0.18339785376E+02  0.20888987383E+02  0.51100000000E-03 0. -1.
<mgrwt>
<rscale>  0 0.20001060E+02</rscale>
<asrwt>0</asrwt>
<pdfrwt beam="2">  1        4 0.60914802E-02 0.20001060E+02</pdfrwt>
<pdfrwt beam="1">  1       -4 0.38859437E-03 0.20001060E+02</pdfrwt>
<totfact> 0.11863767E+06</totfact>
</mgrwt>
</event>
<event>
 4    1  0.1154861E-006  0.2001960E+02  0.7818608E-02  0.1744939E+00
         -4   -1    0    0    0  501 -0.00000000000E+00  0.00000000000E+00  0.31712549865E+02  0.31744325776E+02  0.14200000000E+01 0.  1.
          4   -1    0    0  501    0  0.00000000000E+00 -0.00000000000E+00 -0.29648139290E+01  0.32873274302E+01  0.14200000000E+01 0. -1.
        -11    1    1    2    0    0  0.36418203320E+01  0.93203154164E+01  0.14819882338E+02  0.17881835688E+02  0.51100000000E-03 0. -1.
         11    1    1    2    0    0 -0.36418203320E+01 -0.93203154164E+01  0.13927853598E+02  0.17149817518E+02  0.51100000000E-03 0.  1.
<mgrwt>
<rscale>  0 0.20019601E+02</rscale>
<asrwt>0</asrwt>
<pdfrwt beam="2">  1        4 0.48337824E-03 0.20019601E+02</pdfrwt>
<pdfrwt beam="1">  1       -4 0.49061070E-02 0.20019601E+02</pdfrwt>
<totfact> 0.12176216E+06</totfact>
</mgrwt>
</event>
<event>
 5    1  0.1154861E-006  0.2000035E+02  0.7818608E-02  0.1745321E+00
         -4   -1    0    0    0  501 -0.00000000000E+00  0.00000000000E+00  0.68425483869E+02  0.68440216559E+02  0.14200000000E+01 0. -1.
          4   -1    0    0  501    0  0.00000000000E+00 -0.00000000000E+00 -0.10980880442E+01  0.17950480085E+01  0.14200000000E+01 0.  1.
       1023    2    1    2    0    0  0.00000000000E+00  0.00000000000E+00  0.67327395824E+02  0.70235264568E+02  0.20000354007E+02 0.  0.
        -11    1    3    3    0    0 -0.66408595247E+01 -0.74765982367E+01  0.33471244650E+02  0.34933146940E+02  0.51100000000E-03 0. -1.
         11    1    3    3    0    0  0.66408595247E+01  0.74765982367E+01  0.33856151174E+02  0.35302117628E+02  0.51100000000E-03 0.  1.
<mgrwt>
<rscale>  0 0.20000354E+02</rscale>
<asrwt>0</asrwt>
<pdfrwt beam="2">  1        4 0.22368221E-03 0.20000354E+02</pdfrwt>
<pdfrwt beam="1">  1       -4 0.10581743E-01 0.20000354E+02</pdfrwt>
<totfact> 0.10742121E+06</totfact>
</mgrwt>
</event>
<event>
 5    1  0.1154861E-006  0.2000017E+02  0.7818608E-02  0.1745325E+00
          4   -1    0    0  501    0  0.00000000000E+00  0.00000000000E+00  0.22620132456E+01  0.26707871355E+01  0.14200000000E+01 0.  1.
         -4   -1    0    0    0  501 -0.00000000000E+00 -0.00000000000E+00 -0.40123220322E+02  0.40148340052E+02  0.14200000000E+01 0. -1.
       1023    2    1    2    0    0  0.00000000000E+00  0.00000000000E+00 -0.37861207076E+02  0.42819127188E+02  0.20000166297E+02 0.  0.
        -11    1    3    3    0    0  0.94517369163E+01  0.32659201139E+01 -0.18909432360E+02  0.21390843774E+02  0.51100000000E-03 0. -1.
         11    1    3    3    0    0 -0.94517369163E+01 -0.32659201139E+01 -0.18951774716E+02  0.21428283414E+02  0.51100000000E-03 0.  1.
<mgrwt>
<rscale>  0 0.20000166E+02</rscale>
<asrwt>0</asrwt>
<pdfrwt beam="1">  1        4 0.38137850E-03 0.20000166E+02</pdfrwt>
<pdfrwt beam="2">  1       -4 0.62061791E-02 0.20000166E+02</pdfrwt>
<totfact> 0.11833142E+06</totfact>
</mgrwt>
</event>
<event>
 5    1  0.1154861E-006  0.2000093E+02  0.7818608E-02  0.1745310E+00
          4   -1    0    0  501    0  0.00000000000E+00  0.00000000000E+00  0.36676156274E+02  0.36703635229E+02  0.14200000000E+01 0.  1.
         -4   -1    0    0    0  501 -0.00000000000E+00 -0.00000000000E+00 -0.25114251711E+01  0.28850747633E+01  0.14200000000E+01 0. -1.
       1023    2    1    2    0    0  0.00000000000E+00  0.00000000000E+00  0.34164731103E+02  0.39588709993E+02  0.20000927667E+02 0.  0.
        -11    1    3    3    0    0 -0.94652539086E+01  0.32274793839E+01  0.17002651904E+02  0.19725562774E+02  0.51100000000E-03 0. -1.
         11    1    3    3    0    0  0.94652539086E+01 -0.32274793839E+01  0.17162079199E+02  0.19863147219E+02  0.51100000000E-03 0.  1.
<mgrwt>
<rscale>  0 0.20000928E+02</rscale>
<asrwt>0</asrwt>
<pdfrwt beam="1">  1        4 0.56733412E-02 0.20000928E+02</pdfrwt>
<pdfrwt beam="2">  1       -4 0.41722917E-03 0.20000928E+02</pdfrwt>
<totfact> 0.11980671E+06</totfact>
</mgrwt>
</event>
<event>
 5    1  0.1154861E-006  0.2000049E+02  0.7818608E-02  0.1745318E+00
         -4   -1    0    0    0  501 -0.00000000000E+00  0.00000000000E+00  0.15006128497E+01  0.20659716660E+01  0.14200000000E+01 0. -1.
          4   -1    0    0  501    0  0.00000000000E+00 -0.00000000000E+00 -0.55502924283E+02  0.55521086121E+02  0.14200000000E+01 0.  1.
       1023    2    1    2    0    0  0.00000000000E+00  0.00000000000E+00 -0.54002311434E+02  0.57587057787E+02  0.20000489603E+02 0.  0.
        -11    1    3    3    0    0  0.99357244385E+01  0.11323840733E+01 -0.27182847714E+02  0.28963910715E+02  0.51100000000E-03 0. -1.
         11    1    3    3    0    0 -0.99357244385E+01 -0.11323840733E+01 -0.26819463720E+02  0.28623147071E+02  0.51100000000E-03 0.  1.
<mgrwt>
<rscale>  0 0.20000490E+02</rscale>
<asrwt>0</asrwt>
<pdfrwt beam="2">  1        4 0.85837963E-02 0.20000490E+02</pdfrwt>
<pdfrwt beam="1">  1       -4 0.27574976E-03 0.20000490E+02</pdfrwt>
<totfact> 0.11211829E+06</totfact>
</mgrwt>
</event>
<event>
 5    1  0.1154861E-006  0.2000455E+02  0.7818608E-02  0.1745238E+00
         -4   -1    0    0    0  501 -0.00000000000E+00  0.00000000000E+00  0.28641523035E+02  0.28676702072E+02  0.14200000000E+01 0.  1.
          4   -1    0    0  501    0  0.00000000000E+00 -0.00000000000E+00 -0.33097338363E+01  0.36014910894E+01  0.14200000000E+01 0. -1.
       1023    2    1    2    0    0  0.00000000000E+00  0.00000000000E+00  0.25331789198E+02  0.32278193162E+02  0.20004554726E+02 0.  0.
        -11    1    3    3    0    0 -0.82284228197E+01 -0.56865931842E+01  0.12608436943E+02  0.16094004056E+02  0.51100000000E-03 0. -1.
         11    1    3    3    0    0  0.82284228197E+01  0.56865931842E+01  0.12723352255E+02  0.16184189106E+02  0.51100000000E-03 0.  1.
<mgrwt>
<rscale>  0 0.20004555E+02</rscale>
<asrwt>0</asrwt>
<pdfrwt beam="2">  1        4 0.53433877E-03 0.20004555E+02</pdfrwt>
<pdfrwt beam="1">  1       -4 0.44315371E-02 0.20004555E+02</pdfrwt>
<totfact> 0.12332578E+06</totfact>
</mgrwt>
</event>
<event>
 5    1  0.1185511E-006  0.2000105E+02  0.7818608E-02  0.1745307E+00
         -4   -1    0    0    0  501 -0.00000000000E+00  0.00000000000E+00  0.44286313986E+02  0.44309073636E+02  0.14200000000E+01 0.  1.
          4   -1    0    0  501    0  0.00000000000E+00 -0.00000000000E+00 -0.20093111955E+01  0.24604331896E+01  0.14200000000E+01 0. -1.
       1023    2    1    2    0    0  0.00000000000E+00  0.00000000000E+00  0.42277002790E+02  0.46769506825E+02  0.20001045066E+02 0.  0.
        -11    1    3    3    0    0  0.58280706512E+01  0.81264631230E+01  0.21297788903E+02  0.23528740357E+02  0.51100000000E-03 0. -1.
         11    1    3    3    0    0 -0.58280706512E+01 -0.81264631230E+01  0.20979213888E+02  0.23240766468E+02  0.51100000000E-03 0.  1.
<mgrwt>
<rscale>  0 0.20001045E+02</rscale>
<asrwt>0</asrwt>
<pdfrwt beam="2">  1        4 0.34557725E-03 0.20001045E+02</pdfrwt>
<pdfrwt beam="1">  1       -4 0.68497312E-02 0.20001045E+02</pdfrwt>
<totfact> 0.11657037E+06</totfact>
</mgrwt>
</event>
<event>
 5    1  0.1154861E-006  0.2000041E+02  0.7818608E-02  0.1745320E+00
          4   -1    0    0  501    0  0.00000000000E+00  0.00000000000E+00  0.39021332134E+02  0.39047160736E+02  0.14200000000E+01 0. -1.
         -4   -1    0    0    0  501 -0.00000000000E+00 -0.00000000000E+00 -0.23372922881E+01  0.27348373334E+01  0.14200000000E+01 0.  1.
       1023    2    1    2    0    0  0.00000000000E+00  0.00000000000E+00  0.36684039846E+02  0.41781998069E+02  0.20000414576E+02 0.  0.
        -11    1    3    3    0    0  0.32035582242E+01  0.94729847104E+01  0.18472830980E+02  0.21005849407E+02  0.51100000000E-03 0.  1.
         11    1    3    3    0    0 -0.32035582242E+01 -0.94729847104E+01  0.18211208866E+02  0.20776148662E+02  0.51100000000E-03 0. -1.
<mgrwt>
<rscale>  0 0.20000415E+02</rscale>
<asrwt>0</asrwt>
<pdfrwt beam="1">  1        4 0.60358491E-02 0.20000415E+02</pdfrwt>
<pdfrwt beam="2">  1       -4 0.39215063E-03 0.20000415E+02</pdfrwt>
<totfact> 0.11879967E+06</totfact>
</mgrwt>
</event>
<event>
 5    1  0.1154861E-006  0.2000063E+02  0.7818608E-02  0.1745315E+00
         -4   -1    0    0    0  501 -0.00000000000E+00  0.00000000000E+00  0.19138991891E+01  0.23831512974E+01  0.14200000000E+01 0. -1.
          4   -1    0    0  501    0  0.00000000000E+00 -0.00000000000E+00 -0.46065116738E+02  0.46086997950E+02  0.14200000000E+01 0.  1.
       1023    2    1    2    0    0  0.00000000000E+00  0.00000000000E+00 -0.44151217549E+02  0.48470149248E+02  0.20000633916E+02 0.  0.
        -11    1    3    3    0    0  0.92286394566E+01  0.38519428601E+01 -0.22155581509E+02  0.24307921389E+02  0.51100000000E-03 0.  1.
         11    1    3    3    0    0 -0.92286394566E+01 -0.38519428601E+01 -0.21995636040E+02  0.24162227858E+02  0.51100000000E-03 0. -1.
<mgrwt>
<rscale>  0 0.20000634E+02</rscale>
<asrwt>0</asrwt>
<pdfrwt beam="2">  1        4 0.71247198E-02 0.20000634E+02</pdfrwt>
<pdfrwt beam="1">  1       -4 0.33222555E-03 0.20000634E+02</pdfrwt>
<totfact> 0.11584300E+06</totfact>
</mgrwt>
</event>
<event>
 4    1  0.1154861E-006  0.2002451E+02  0.7818608E-02  0.1744841E+00
         -4   -1    0    0    0  501 -0.00000000000E+00  0.00000000000E+00  0.68813410333E+01  0.70263258120E+01  0.14200000000E+01 0.  1.
          4   -1    0    0  501    0  0.00000000000E+00 -0.00000000000E+00 -0.14235144380E+02  0.14305793774E+02  0.14200000000E+01 0. -1.
        -11    1    1    2    0    0  0.95453461641E+01  0.30026643100E+01 -0.40391022818E+01  0.10790920899E+02  0.51100000000E-03 0. -1.
         11    1    1    2    0    0 -0.95453461641E+01 -0.30026643100E+01 -0.33147010647E+01  0.10541198687E+02  0.51100000000E-03 0.  1.
<mgrwt>
<rscale>  0 0.20024508E+02</rscale>
<asrwt>0</asrwt>
<pdfrwt beam="2">  1        4 0.22066094E-02 0.20024508E+02</pdfrwt>
<pdfrwt beam="1">  1       -4 0.10752551E-02 0.20024508E+02</pdfrwt>
<totfact> 0.12902923E+06</totfact>
</mgrwt>
</event>
<event>
 5    1  0.1154861E-006  0.2000065E+02  0.7818608E-02  0.1745315E+00
          4   -1    0    0  501    0  0.00000000000E+00  0.00000000000E+00  0.67637834232E+02  0.67652738448E+02  0.14200000000E+01 0. -1.
         -4   -1    0    0    0  501 -0.00000000000E+00 -0.00000000000E+00 -0.11189949124E+01  0.18079130549E+01  0.14200000000E+01 0.  1.
       1023    2    1    2    0    0  0.00000000000E+00  0.00000000000E+00  0.66518839319E+02  0.69460651503E+02  0.20000653061E+02 0.  0.
        -11    1    3    3    0    0  0.11366966317E+01 -0.99353882692E+01  0.33085386506E+02  0.34563663286E+02  0.51100000000E-03 0.  1.
         11    1    3    3    0    0 -0.11366966317E+01  0.99353882692E+01  0.33433452814E+02  0.34896988217E+02  0.51100000000E-03 0. -1.
<mgrwt>
<rscale>  0 0.20000653E+02</rscale>
<asrwt>0</asrwt>
<pdfrwt beam="1">  1        4 0.10459958E-01 0.20000653E+02</pdfrwt>
<pdfrwt beam="2">  1       -4 0.22629330E-03 0.20000653E+02</pdfrwt>
<totfact> 0.10769177E+06</totfact>
</mgrwt>
</event>
<event>
 5    1  0.1181643E-006  0.2000104E+02  0.7818608E-02  0.1745307E+00
          4   -1    0    0  501    0  0.00000000000E+00  0.00000000000E+00  0.22925258841E+02  0.22969194433E+02  0.14200000000E+01 0. -1.
         -4   -1    0    0    0  501 -0.00000000000E+00 -0.00000000000E+00 -0.41973870928E+01  0.44310786956E+01  0.14200000000E+01 0.  1.
       1023    2    1    2    0    0  0.00000000000E+00  0.00000000000E+00  0.18727871748E+02  0.27400273129E+02  0.20001044656E+02 0.  0.
        -11    1    3    3    0    0 -0.96298460458E+01  0.26959410992E+01  0.92382792891E+01  0.13614251274E+02  0.51100000000E-03 0. -1.
         11    1    3    3    0    0  0.96298460458E+01 -0.26959410992E+01  0.94895924590E+01  0.13786021855E+02  0.51100000000E-03 0.  1.
<mgrwt>
<rscale>  0 0.20001045E+02</rscale>
<asrwt>0</asrwt>
<pdfrwt beam="1">  1        4 0.35483188E-02 0.20001045E+02</pdfrwt>
<pdfrwt beam="2">  1       -4 0.66710781E-03 0.20001045E+02</pdfrwt>
<totfact> 0.12592480E+06</totfact>
</mgrwt>
</event>
<event>
 5    1  0.1154861E-006  0.2000372E+02  0.7818608E-02  0.1745254E+00
          4   -1    0    0  501    0  0.00000000000E+00  0.00000000000E+00  0.16490041509E+02  0.16551068514E+02  0.14200000000E+01 0. -1.
         -4   -1    0    0    0  501 -0.00000000000E+00 -0.00000000000E+00 -0.59100364912E+01  0.60782342277E+01  0.14200000000E+01 0.  1.
       1023    2    1    2    0    0  0.00000000000E+00  0.00000000000E+00  0.10580005018E+02  0.22629302742E+02  0.20003720564E+02 0.  0.
        -11    1    3    3    0    0  0.97457710486E+01 -0.22438700648E+01  0.51214393247E+01  0.11235842079E+02  0.51100000000E-03 0. -1.
         11    1    3    3    0    0 -0.97457710486E+01  0.22438700648E+01  0.54585656930E+01  0.11393460663E+02  0.51100000000E-03 0.  1.
<mgrwt>
<rscale>  0 0.20003721E+02</rscale>
<asrwt>0</asrwt>
<pdfrwt beam="1">  1        4 0.25545621E-02 0.20003721E+02</pdfrwt>
<pdfrwt beam="2">  1       -4 0.92686905E-03 0.20003721E+02</pdfrwt>
<totfact> 0.12854975E+06</totfact>
</mgrwt>
</event>
<event>
 5    1  0.1154861E-006  0.2000082E+02  0.7818608E-02  0.1745312E+00
          4   -1    0    0  501    0  0.00000000000E+00  0.00000000000E+00  0.48684784584E+02  0.48705488910E+02  0.14200000000E+01 0.  1.
         -4   -1    0    0    0  501 -0.00000000000E+00 -0.00000000000E+00 -0.17850460212E+01  0.22809623622E+01  0.14200000000E+01 0. -1.
       1023    2    1    2    0    0  0.00000000000E+00  0.00000000000E+00  0.46899738562E+02  0.50986451272E+02  0.20000818386E+02 0.  0.
        -11    1    3    3    0    0  0.15888760026E+01 -0.98731205868E+01  0.23266987226E+02  0.25325002111E+02  0.51100000000E-03 0.  1.
         11    1    3    3    0    0 -0.15888760026E+01  0.98731205868E+01  0.23632751337E+02  0.25661449162E+02  0.51100000000E-03 0. -1.
<mgrwt>
<rscale>  0 0.20000818E+02</rscale>
<asrwt>0</asrwt>
<pdfrwt beam="1">  1        4 0.75297058E-02 0.20000818E+02</pdfrwt>
<pdfrwt beam="2">  1       -4 0.31436256E-03 0.20000818E+02</pdfrwt>
<totfact> 0.11477982E+06</totfact>
</mgrwt>
</event>
<event>
 5    1  0.1154861E-006  0.2000043E+02  0.7818608E-02  0.1745319E+00
          4   -1    0    0  501    0  0.00000000000E+00  0.00000000000E+00  0.31092016530E+02  0.31124425969E+02  0.14200000000E+01 0. -1.
         -4   -1    0    0    0  501 -0.00000000000E+00 -0.00000000000E+00 -0.30238206232E+01  0.33406423276E+01  0.14200000000E+01 0.  1.
       1023    2    1    2    0    0  0.00000000000E+00  0.00000000000E+00  0.28068195907E+02  0.34465068297E+02  0.20000432776E+02 0.  0.
        -11    1    3    3    0    0  0.39391284512E+01  0.91915550753E+01  0.13941141847E+02  0.17156831115E+02  0.51100000000E-03 0. -1.
         11    1    3    3    0    0 -0.39391284512E+01 -0.91915550753E+01  0.14127054060E+02  0.17308237181E+02  0.51100000000E-03 0.  1.
<mgrwt>
<rscale>  0 0.20000433E+02</rscale>
<asrwt>0</asrwt>
<pdfrwt beam="1">  1        4 0.48102511E-02 0.20000433E+02</pdfrwt>
<pdfrwt beam="2">  1       -4 0.49206711E-03 0.20000433E+02</pdfrwt>
<totfact> 0.12227889E+06</totfact>
</mgrwt>
</event>
<event>
 4    1  0.1154861E-006  0.2006292E+02  0.7818608E-02  0.1744080E+00
         -4   -1    0    0    0  501 -0.00000000000E+00  0.00000000000E+00  0.10087018238E+03  0.10088017691E+03  0.14200000000E+01 0.  1.
          4   -1    0    0  501    0  0.00000000000E+00 -0.00000000000E+00 -0.47709774477E+00  0.14980060941E+01  0.14200000000E+01 0. -1.
        -11    1    1    2    0    0  0.25519752673E+01  0.96776475244E+01  0.46732652882E+02  0.47792366389E+02  0.51100000000E-03 0.  1.
         11    1    1    2    0    0 -0.25519752673E+01 -0.96776475244E+01  0.53660431754E+02  0.54585816616E+02  0.51100000000E-03 0. -1.
<mgrwt>
<rscale>  0 0.20062924E+02</rscale>
<asrwt>0</asrwt>
<pdfrwt beam="2">  1        4 0.15269985E-03 0.20062924E+02</pdfrwt>
<pdfrwt beam="1">  1       -4 0.15597792E-01 0.20062924E+02</pdfrwt>
<totfact> 0.96732356E+05</totfact>
</mgrwt>
</event>
<event>
 4    1  0.1154861E-006  0.2002194E+02  0.7818608E-02  0.1744892E+00
         -4   -1    0    0    0  501 -0.00000000000E+00  0.00000000000E+00  0.58334023244E+02  0.58351303909E+02  0.14200000000E+01 0. -1.
          4   -1    0    0  501    0  0.00000000000E+00 -0.00000000000E+00 -0.14039991733E+01  0.19969010187E+01  0.14200000000E+01 0.  1.
        -11    1    1    2    0    0  0.44505482954E+01  0.89595202882E+01  0.27340605519E+02  0.29113383423E+02  0.51100000000E-03 0.  1.
         11    1    1    2    0    0 -0.44505482954E+01 -0.89595202882E+01  0.29589418552E+02  0.31234821505E+02  0.51100000000E-03 0. -1.
<mgrwt>
<rscale>  0 0.20021943E+02</rscale>
<asrwt>0</asrwt>
<pdfrwt beam="2">  1        4 0.26293703E-03 0.20021943E+02</pdfrwt>
<pdfrwt beam="1">  1       -4 0.90214008E-02 0.20021943E+02</pdfrwt>
<totfact> 0.11081033E+06</totfact>
</mgrwt>
</event>
<event>
 5    1  0.1164042E-006  0.2000097E+02  0.7818608E-02  0.1745309E+00
          4   -1    0    0  501    0  0.00000000000E+00  0.00000000000E+00  0.45902451846E+01  0.48048674128E+01  0.14200000000E+01 0. -1.
         -4   -1    0    0    0  501 -0.00000000000E+00 -0.00000000000E+00 -0.21050634665E+02  0.21098474348E+02  0.14200000000E+01 0.  1.
       1023    2    1    2    0    0  0.00000000000E+00  0.00000000000E+00 -0.16460389481E+02  0.25903341761E+02  0.20000967290E+02 0.  0.
        -11    1    3    3    0    0  0.82729513488E+01  0.56184874162E+01 -0.81998770641E+01  0.12932405383E+02  0.51100000000E-03 0. -1.
         11    1    3    3    0    0 -0.82729513488E+01 -0.56184874162E+01 -0.82605124166E+01  0.12970936378E+02  0.51100000000E-03 0.  1.
<mgrwt>
<rscale>  0 0.20000967E+02</rscale>
<asrwt>0</asrwt>
<pdfrwt beam="1">  1        4 0.72638096E-03 0.20000967E+02</pdfrwt>
<pdfrwt beam="2">  1       -4 0.32587485E-02 0.20000967E+02</pdfrwt>
<totfact> 0.12674245E+06</totfact>
</mgrwt>
</event>
<event>
 5    1  0.1154861E-006  0.2000267E+02  0.7818608E-02  0.1745275E+00
          4   -1    0    0  501    0  0.00000000000E+00  0.00000000000E+00  0.14845172658E+01  0.20543104713E+01  0.14200000000E+01 0. -1.
         -4   -1    0    0    0  501 -0.00000000000E+00 -0.00000000000E+00 -0.55950731593E+02  0.55968748117E+02  0.14200000000E+01 0.  1.
       1023    2    1    2    0    0  0.00000000000E+00  0.00000000000E+00 -0.54466214328E+02  0.58023058589E+02  0.20002670442E+02 0.  0.
        -11    1    3    3    0    0 -0.90088598100E+01  0.43421015787E+01 -0.26898514864E+02  0.28697447680E+02  0.51100000000E-03 0. -1.
         11    1    3    3    0    0  0.90088598100E+01 -0.43421015787E+01 -0.27567699464E+02  0.29325610909E+02  0.51100000000E-03 0.  1.
<mgrwt>
<rscale>  0 0.20002670E+02</rscale>
<asrwt>0</asrwt>
<pdfrwt beam="1">  1        4 0.27360345E-03 0.20002670E+02</pdfrwt>
<pdfrwt beam="2">  1       -4 0.86530196E-02 0.20002670E+02</pdfrwt>
<totfact> 0.11192329E+06</totfact>
</mgrwt>
</event>
<event>
 5    1  0.1154861E-006  0.2001012E+02  0.7818608E-02  0.1745127E+00
         -4   -1    0    0    0  501 -0.00000000000E+00  0.00000000000E+00  0.17646884730E+02  0.17703924443E+02  0.14200000000E+01 0.  1.
          4   -1    0    0  501    0  0.00000000000E+00 -0.00000000000E+00 -0.55161994302E+01  0.56960386369E+01  0.14200000000E+01 0. -1.
       1023    2    1    2    0    0  0.00000000000E+00  0.00000000000E+00  0.12130685300E+02  0.23399963080E+02  0.20010116099E+02 0.  0.
        -11    1    3    3    0    0 -0.81520420364E+01 -0.57973293178E+01  0.62883584323E+01  0.11815594298E+02  0.51100000000E-03 0. -1.
         11    1    3    3    0    0  0.81520420364E+01  0.57973293178E+01  0.58423268676E+01  0.11584368782E+02  0.51100000000E-03 0.  1.
<mgrwt>
<rscale>  0 0.20010116E+02</rscale>
<asrwt>0</asrwt>
<pdfrwt beam="2">  1        4 0.86686752E-03 0.20010116E+02</pdfrwt>
<pdfrwt beam="1">  1       -4 0.27331268E-02 0.20010116E+02</pdfrwt>
<totfact> 0.12802552E+06</totfact>
</mgrwt>
</event>
<event>
 5    1  0.1154861E-006  0.2000043E+02  0.7818608E-02  0.1745320E+00
         -4   -1    0    0    0  501 -0.00000000000E+00  0.00000000000E+00  0.12019956883E+02  0.12103543426E+02  0.14200000000E+01 0.  1.
          4   -1    0    0  501    0  0.00000000000E+00 -0.00000000000E+00 -0.81458060105E+01  0.82686489561E+01  0.14200000000E+01 0. -1.
       1023    2    1    2    0    0  0.00000000000E+00  0.00000000000E+00  0.38741508725E+01  0.20372192382E+02  0.20000429432E+02 0.  0.
        -11    1    3    3    0    0 -0.98481183324E+01 -0.17362668934E+01  0.20033752035E+01  0.10198704324E+02  0.51100000000E-03 0.  1.
         11    1    3    3    0    0  0.98481183324E+01  0.17362668934E+01  0.18707756690E+01  0.10173488059E+02  0.51100000000E-03 0. -1.
<mgrwt>
<rscale>  0 0.20000429E+02</rscale>
<asrwt>0</asrwt>
<pdfrwt beam="2">  1        4 0.12690801E-02 0.20000429E+02</pdfrwt>
<pdfrwt beam="1">  1       -4 0.18651033E-02 0.20000429E+02</pdfrwt>
<totfact> 0.12991330E+06</totfact>
</mgrwt>
</event>
<event>
 5    1  0.1154861E-006  0.2000118E+02  0.7818608E-02  0.1745305E+00
         -4   -1    0    0    0  501 -0.00000000000E+00  0.00000000000E+00  0.79635943224E+02  0.79648602331E+02  0.14200000000E+01 0.  1.
          4   -1    0    0  501    0  0.00000000000E+00 -0.00000000000E+00 -0.83754339803E+00  0.16485990852E+01  0.14200000000E+01 0. -1.
       1023    2    1    2    0    0  0.00000000000E+00  0.00000000000E+00  0.78798399826E+02  0.81297201416E+02  0.20001178537E+02 0.  0.
        -11    1    3    3    0    0 -0.92768279112E+01  0.37351762054E+01  0.39291041722E+02  0.40543766935E+02  0.51100000000E-03 0. -1.
         11    1    3    3    0    0  0.92768279112E+01 -0.37351762054E+01  0.39507358104E+02  0.40753434481E+02  0.51100000000E-03 0.  1.
<mgrwt>
<rscale>  0 0.20001179E+02</rscale>
<asrwt>0</asrwt>
<pdfrwt beam="2">  1        4 0.19221555E-03 0.20001179E+02</pdfrwt>
<pdfrwt beam="1">  1       -4 0.12315043E-01 0.20001179E+02</pdfrwt>
<totfact> 0.10367741E+06</totfact>
</mgrwt>
</event>
<event>
 5    1  0.1154861E-006  0.2000053E+02  0.7818608E-02  0.1745318E+00
          4   -1    0    0  501    0  0.00000000000E+00  0.00000000000E+00  0.20305901829E+00  0.14344451767E+01  0.14200000000E+01 0.  1.
         -4   -1    0    0    0  501 -0.00000000000E+00 -0.00000000000E+00 -0.12090483572E+03  0.12091317422E+03  0.14200000000E+01 0. -1.
       1023    2    1    2    0    0  0.00000000000E+00  0.00000000000E+00 -0.12070177670E+03  0.12234761940E+03  0.20000526834E+02 0.  0.
        -11    1    3    3    0    0  0.10000196874E+02 -0.29140724153E-01 -0.60216665287E+02  0.61041392229E+02  0.51100000000E-03 0. -1.
         11    1    3    3    0    0 -0.10000196874E+02  0.29140724153E-01 -0.60485111418E+02  0.61306227173E+02  0.51100000000E-03 0.  1.
<mgrwt>
<rscale>  0 0.20000527E+02</rscale>
<asrwt>0</asrwt>
<pdfrwt beam="1">  1        4 0.12660338E-03 0.20000527E+02</pdfrwt>
<pdfrwt beam="2">  1       -4 0.18696093E-01 0.20000527E+02</pdfrwt>
<totfact> 0.92066190E+05</totfact>
</mgrwt>
</event>
<event>
 5    1  0.1154861E-006  0.2000035E+02  0.7818608E-02  0.1745321E+00
          4   -1    0    0  501    0  0.00000000000E+00  0.00000000000E+00  0.91155966201E+01  0.92255353091E+01  0.14200000000E+01 0.  1.
         -4   -1    0    0    0  501 -0.00000000000E+00 -0.00000000000E+00 -0.10747912274E+02  0.10841310725E+02  0.14200000000E+01 0. -1.
       1023    2    1    2    0    0  0.00000000000E+00  0.00000000000E+00 -0.16323156535E+01  0.20066846034E+02  0.20000346381E+02 0.  0.
        -11    1    3    3    0    0 -0.14850394885E+01  0.98891622961E+01 -0.76509280766E+00  0.10029269189E+02  0.51100000000E-03 0. -1.
         11    1    3    3    0    0  0.14850394885E+01 -0.98891622961E+01 -0.86722284582E+00  0.10037576845E+02  0.51100000000E-03 0.  1.
<mgrwt>
<rscale>  0 0.20000346E+02</rscale>
<asrwt>0</asrwt>
<pdfrwt beam="1">  1        4 0.14180408E-02 0.20000346E+02</pdfrwt>
<pdfrwt beam="2">  1       -4 0.16691663E-02 0.20000346E+02</pdfrwt>
<totfact> 0.13009618E+06</totfact>
</mgrwt>
</event>
<event>
 5    1  0.1154861E-006  0.2000159E+02  0.7818608E-02  0.1745296E+00
          4   -1    0    0  501    0  0.00000000000E+00  0.00000000000E+00  0.71694504415E+02  0.71708565481E+02  0.14200000000E+01 0.  1.
         -4   -1    0    0    0  501 -0.00000000000E+00 -0.00000000000E+00 -0.10157163156E+01  0.17458750339E+01  0.14200000000E+01 0. -1.
       1023    2    1    2    0    0  0.00000000000E+00  0.00000000000E+00  0.70678788099E+02  0.73454440514E+02  0.20001593540E+02 0.  0.
        -11    1    3    3    0    0 -0.14702254313E+01 -0.98921058106E+01  0.35430510394E+02  0.36814893552E+02  0.51100000000E-03 0.  1.
         11    1    3    3    0    0  0.14702254313E+01  0.98921058106E+01  0.35248277705E+02  0.36639546962E+02  0.51100000000E-03 0. -1.
<mgrwt>
<rscale>  0 0.20001594E+02</rscale>
<asrwt>0</asrwt>
<pdfrwt beam="1">  1        4 0.11087175E-01 0.20001594E+02</pdfrwt>
<pdfrwt beam="2">  1       -4 0.21351165E-03 0.20001594E+02</pdfrwt>
<totfact> 0.10628804E+06</totfact>
</mgrwt>
</event>
<event>
 5    1  0.1154861E-006  0.2000040E+02  0.7818608E-02  0.1745320E+00
         -4   -1    0    0    0  501 -0.00000000000E+00  0.00000000000E+00  0.26303502632E+01  0.29891708729E+01  0.14200000000E+01 0. -1.
          4   -1    0    0  501    0  0.00000000000E+00 -0.00000000000E+00 -0.35217597470E+02  0.35246213577E+02  0.14200000000E+01 0.  1.
       1023    2    1    2    0    0  0.00000000000E+00  0.00000000000E+00 -0.32587247206E+02  0.38235384450E+02  0.20000398585E+02 0.  0.
        -11    1    3    3    0    0  0.27147056763E+01  0.96245717898E+01 -0.16208630374E+02  0.19045254210E+02  0.51100000000E-03 0.  1.
         11    1    3    3    0    0 -0.27147056763E+01 -0.96245717898E+01 -0.16378616832E+02  0.19190130241E+02  0.51100000000E-03 0. -1.
<mgrwt>
<rscale>  0 0.20000399E+02</rscale>
<asrwt>0</asrwt>
<pdfrwt beam="2">  1        4 0.54478944E-02 0.20000399E+02</pdfrwt>
<pdfrwt beam="1">  1       -4 0.43447212E-03 0.20000399E+02</pdfrwt>
<totfact> 0.12045062E+06</totfact>
</mgrwt>
</event>
<event>
 5    1  0.1154861E-006  0.2000018E+02  0.7818608E-02  0.1745325E+00
         -4   -1    0    0    0  501 -0.00000000000E+00  0.00000000000E+00  0.57077921818E+01  0.58817762276E+01  0.14200000000E+01 0. -1.
          4   -1    0    0  501    0  0.00000000000E+00 -0.00000000000E+00 -0.17053268694E+02  0.17112287198E+02  0.14200000000E+01 0.  1.
       1023    2    1    2    0    0  0.00000000000E+00  0.00000000000E+00 -0.11345476512E+02  0.22994063425E+02  0.20000177887E+02 0.  0.
        -11    1    3    3    0    0  0.47762666845E+01  0.87856806162E+01 -0.57066744434E+01  0.11513776131E+02  0.51100000000E-03 0.  1.
         11    1    3    3    0    0 -0.47762666845E+01 -0.87856806162E+01 -0.56388020685E+01  0.11480287294E+02  0.51100000000E-03 0. -1.
<mgrwt>
<rscale>  0 0.20000178E+02</rscale>
<asrwt>0</asrwt>
<pdfrwt beam="2">  1        4 0.26415031E-02 0.20000178E+02</pdfrwt>
<pdfrwt beam="1">  1       -4 0.89604515E-03 0.20000178E+02</pdfrwt>
<totfact> 0.12838684E+06</totfact>
</mgrwt>
</event>
<event>
 5    1  0.1154861E-006  0.2000064E+02  0.7818608E-02  0.1745315E+00
          4   -1    0    0  501    0  0.00000000000E+00  0.00000000000E+00  0.19208043635E+01  0.23887003586E+01  0.14200000000E+01 0. -1.
         -4   -1    0    0    0  501 -0.00000000000E+00 -0.00000000000E+00 -0.45931977775E+02  0.45953922383E+02  0.14200000000E+01 0.  1.
       1023    2    1    2    0    0  0.00000000000E+00  0.00000000000E+00 -0.44011173412E+02  0.48342622741E+02  0.20000644700E+02 0.  0.
        -11    1    3    3    0    0 -0.98760475593E+01 -0.15701181899E+01 -0.22174093965E+02  0.24324720553E+02  0.51100000000E-03 0.  1.
         11    1    3    3    0    0  0.98760475593E+01  0.15701181899E+01 -0.21837079447E+02  0.24017902189E+02  0.51100000000E-03 0. -1.
<mgrwt>
<rscale>  0 0.20000645E+02</rscale>
<asrwt>0</asrwt>
<pdfrwt beam="1">  1        4 0.33318844E-03 0.20000645E+02</pdfrwt>
<pdfrwt beam="2">  1       -4 0.71041374E-02 0.20000645E+02</pdfrwt>
<totfact> 0.11589735E+06</totfact>
</mgrwt>
</event>
<event>
 5    1  0.1154861E-006  0.2000216E+02  0.7818608E-02  0.1745285E+00
          4   -1    0    0  501    0  0.00000000000E+00  0.00000000000E+00  0.27353519726E+01  0.30819718386E+01  0.14200000000E+01 0.  1.
         -4   -1    0    0    0  501 -0.00000000000E+00 -0.00000000000E+00 -0.34025171563E+02  0.34054789676E+02  0.14200000000E+01 0. -1.
       1023    2    1    2    0    0  0.00000000000E+00  0.00000000000E+00 -0.31289819590E+02  0.37136761515E+02  0.20002156029E+02 0.  0.
        -11    1    3    3    0    0  0.16875253184E+01 -0.98576751471E+01 -0.15659313244E+02  0.18580516476E+02  0.51100000000E-03 0. -1.
         11    1    3    3    0    0 -0.16875253184E+01  0.98576751471E+01 -0.15630506346E+02  0.18556245038E+02  0.51100000000E-03 0.  1.
<mgrwt>
<rscale>  0 0.20002156E+02</rscale>
<asrwt>0</asrwt>
<pdfrwt beam="1">  1        4 0.44976479E-03 0.20002156E+02</pdfrwt>
<pdfrwt beam="2">  1       -4 0.52635829E-02 0.20002156E+02</pdfrwt>
<totfact> 0.12095377E+06</totfact>
</mgrwt>
</event>
<event>
 5    1  0.1154861E-006  0.2000023E+02  0.7818608E-02  0.1745324E+00
         -4   -1    0    0    0  501 -0.00000000000E+00  0.00000000000E+00  0.55422297157E+02  0.55440485407E+02  0.14200000000E+01 0.  1.
          4   -1    0    0  501    0  0.00000000000E+00 -0.00000000000E+00 -0.15035621229E+01  0.20681148560E+01  0.14200000000E+01 0. -1.
       1023    2    1    2    0    0  0.00000000000E+00  0.00000000000E+00  0.53918735034E+02  0.57508600263E+02  0.20000227912E+02 0.  0.
        -11    1    3    3    0    0 -0.97862697071E+01  0.20569260148E+01  0.26913051230E+02  0.28710875051E+02  0.51100000000E-03 0. -1.
         11    1    3    3    0    0  0.97862697071E+01 -0.20569260148E+01  0.27005683803E+02  0.28797725212E+02  0.51100000000E-03 0.  1.
<mgrwt>
<rscale>  0 0.20000228E+02</rscale>
<asrwt>0</asrwt>
<pdfrwt beam="2">  1        4 0.27614344E-03 0.20000228E+02</pdfrwt>
<pdfrwt beam="1">  1       -4 0.85713347E-02 0.20000228E+02</pdfrwt>
<totfact> 0.11215197E+06</totfact>
</mgrwt>
</event>
<event>
 5    1  0.1154861E-006  0.2000419E+02  0.7818608E-02  0.1745245E+00
         -4   -1    0    0    0  501 -0.00000000000E+00  0.00000000000E+00  0.48221431633E+02  0.48242334819E+02  0.14200000000E+01 0.  1.
          4   -1    0    0  501    0  0.00000000000E+00 -0.00000000000E+00 -0.18077133155E+01  0.22987447512E+01  0.14200000000E+01 0. -1.
       1023    2    1    2    0    0  0.00000000000E+00  0.00000000000E+00  0.46413718318E+02  0.50541079570E+02  0.20004186462E+02 0.  0.
        -11    1    3    3    0    0 -0.32222101299E+01  0.94688392094E+01  0.23251675407E+02  0.25311696182E+02  0.51100000000E-03 0. -1.
         11    1    3    3    0    0  0.32222101299E+01 -0.94688392094E+01  0.23162042910E+02  0.25229383388E+02  0.51100000000E-03 0.  1.
<mgrwt>
<rscale>  0 0.20004186E+02</rscale>
<asrwt>0</asrwt>
<pdfrwt beam="2">  1        4 0.31748934E-03 0.20004186E+02</pdfrwt>
<pdfrwt beam="1">  1       -4 0.74580610E-02 0.20004186E+02</pdfrwt>
<totfact> 0.11492668E+06</totfact>
</mgrwt>
</event>
<event>
 5    1  0.1154861E-006  0.2000043E+02  0.7818608E-02  0.1745320E+00
          4   -1    0    0  501    0  0.00000000000E+00  0.00000000000E+00  0.35877163074E+01  0.38585111510E+01  0.14200000000E+01 0. -1.
         -4   -1    0    0    0  501 -0.00000000000E+00 -0.00000000000E+00 -0.26569939156E+02  0.26607857237E+02  0.14200000000E+01 0.  1.
       1023    2    1    2    0    0  0.00000000000E+00  0.00000000000E+00 -0.22982222849E+02  0.30466368388E+02  0.20000425888E+02 0.  0.
        -11    1    3    3    0    0  0.97419219850E+01  0.22581334266E+01 -0.11480543468E+02  0.15225212285E+02  0.51100000000E-03 0.  1.
         11    1    3    3    0    0 -0.97419219850E+01 -0.22581334266E+01 -0.11501679380E+02  0.15241156103E+02  0.51100000000E-03 0. -1.
<mgrwt>
<rscale>  0 0.20000426E+02</rscale>
<asrwt>0</asrwt>
<pdfrwt beam="1">  1        4 0.57570352E-03 0.20000426E+02</pdfrwt>
<pdfrwt beam="2">  1       -4 0.41114300E-02 0.20000426E+02</pdfrwt>
<totfact> 0.12430915E+06</totfact>
</mgrwt>
</event>
<event>
 5    1  0.1154861E-006  0.2000394E+02  0.7818608E-02  0.1745250E+00
         -4   -1    0    0    0  501 -0.00000000000E+00  0.00000000000E+00  0.14205496553E+02  0.14276292667E+02  0.14200000000E+01 0.  1.
          4   -1    0    0  501    0  0.00000000000E+00 -0.00000000000E+00 -0.68813277729E+01  0.70263128252E+01  0.14200000000E+01 0. -1.
       1023    2    1    2    0    0  0.00000000000E+00  0.00000000000E+00  0.73241687798E+01  0.21302605492E+02  0.20003938423E+02 0.  0.
        -11    1    3    3    0    0  0.28524728382E+01 -0.95865860435E+01  0.36753247828E+01  0.10655855000E+02  0.51100000000E-03 0.  1.
         11    1    3    3    0    0 -0.28524728382E+01  0.95865860435E+01  0.36488439970E+01  0.10646750492E+02  0.51100000000E-03 0. -1.
<mgrwt>
<rscale>  0 0.20003938E+02</rscale>
<asrwt>0</asrwt>
<pdfrwt beam="2">  1        4 0.10752644E-02 0.20003938E+02</pdfrwt>
<pdfrwt beam="1">  1       -4 0.22020595E-02 0.20003938E+02</pdfrwt>
<totfact> 0.12931740E+06</totfact>
</mgrwt>
</event>
<event>
 5    1  0.1180830E-006  0.2000072E+02  0.7818608E-02  0.1745314E+00
         -4   -1    0    0    0  501 -0.00000000000E+00  0.00000000000E+00  0.67164960368E+01  0.68649631472E+01  0.14200000000E+01 0.  1.
          4   -1    0    0  501    0  0.00000000000E+00 -0.00000000000E+00 -0.14543596515E+02  0.14612754689E+02  0.14200000000E+01 0. -1.
       1023    2    1    2    0    0  0.00000000000E+00  0.00000000000E+00 -0.78271004786E+01  0.21477717836E+02  0.20000721526E+02 0.  0.
        -11    1    3    3    0    0 -0.96487029119E+01  0.26277930116E+01 -0.39851938958E+01  0.10764967935E+02  0.51100000000E-03 0.  1.
         11    1    3    3    0    0  0.96487029119E+01 -0.26277930116E+01 -0.38419065828E+01  0.10712749901E+02  0.51100000000E-03 0. -1.
<mgrwt>
<rscale>  0 0.20000722E+02</rscale>
<asrwt>0</asrwt>
<pdfrwt beam="2">  1        4 0.22542168E-02 0.20000722E+02</pdfrwt>
<pdfrwt beam="1">  1       -4 0.10500475E-02 0.20000722E+02</pdfrwt>
<totfact> 0.12925718E+06</totfact>
</mgrwt>
</event>
<event>
 5    1  0.1154861E-006  0.2000060E+02  0.7818608E-02  0.1745316E+00
          4   -1    0    0  501    0  0.00000000000E+00  0.00000000000E+00  0.10112505470E+02  0.10211717137E+02  0.14200000000E+01 0. -1.
         -4   -1    0    0    0  501 -0.00000000000E+00 -0.00000000000E+00 -0.96898576034E+01  0.97933518458E+01  0.14200000000E+01 0.  1.
       1023    2    1    2    0    0  0.00000000000E+00  0.00000000000E+00  0.42264786649E+00  0.20005068982E+02  0.20000603835E+02 0.  0.
        -11    1    3    3    0    0  0.84749026968E+01 -0.53085767722E+01  0.17852766124E+00  0.10001841603E+02  0.51100000000E-03 0.  1.
         11    1    3    3    0    0 -0.84749026968E+01  0.53085767722E+01  0.24412020525E+00  0.10003227379E+02  0.51100000000E-03 0. -1.
<mgrwt>
<rscale>  0 0.20000604E+02</rscale>
<asrwt>0</asrwt>
<pdfrwt beam="1">  1        4 0.15713628E-02 0.20000604E+02</pdfrwt>
<pdfrwt beam="2">  1       -4 0.15063401E-02 0.20000604E+02</pdfrwt>
<totfact> 0.13012942E+06</totfact>
</mgrwt>
</event>
<event>
 5    1  0.1154861E-006  0.2000027E+02  0.7818608E-02  0.1745323E+00
          4   -1    0    0  501    0  0.00000000000E+00  0.00000000000E+00  0.32296805736E+02  0.32328007373E+02  0.14200000000E+01 0. -1.
         -4   -1    0    0    0  501 -0.00000000000E+00 -0.00000000000E+00 -0.28990428573E+01  0.32281340567E+01  0.14200000000E+01 0.  1.
       1023    2    1    2    0    0  0.00000000000E+00  0.00000000000E+00  0.29397762878E+02  0.35556141430E+02  0.20000268277E+02 0.  0.
        -11    1    3    3    0    0  0.90963211600E+01  0.41542077715E+01  0.14781918734E+02  0.17846725822E+02  0.51100000000E-03 0.  1.
         11    1    3    3    0    0 -0.90963211600E+01 -0.41542077715E+01  0.14615844144E+02  0.17709415608E+02  0.51100000000E-03 0. -1.
<mgrwt>
<rscale>  0 0.20000268E+02</rscale>
<asrwt>0</asrwt>
<pdfrwt beam="1">  1        4 0.49964544E-02 0.20000268E+02</pdfrwt>
<pdfrwt beam="2">  1       -4 0.47372141E-03 0.20000268E+02</pdfrwt>
<totfact> 0.12174348E+06</totfact>
</mgrwt>
</event>
<event>
 5    1  0.1154861E-006  0.2000010E+02  0.7818608E-02  0.1745326E+00
         -4   -1    0    0    0  501 -0.00000000000E+00  0.00000000000E+00  0.72785022803E+02  0.72798873236E+02  0.14200000000E+01 0.  1.
          4   -1    0    0  501    0  0.00000000000E+00 -0.00000000000E+00 -0.98921901043E+00  0.17305936122E+01  0.14200000000E+01 0. -1.
       1023    2    1    2    0    0  0.00000000000E+00  0.00000000000E+00  0.71795803793E+02  0.74529466848E+02  0.20000099661E+02 0.  0.
        -11    1    3    3    0    0  0.24918462327E+01 -0.96846114078E+01  0.35895051372E+02  0.37261987454E+02  0.51100000000E-03 0. -1.
         11    1    3    3    0    0 -0.24918462327E+01  0.96846114078E+01  0.35900752421E+02  0.37267479394E+02  0.51100000000E-03 0.  1.
<mgrwt>
<rscale>  0 0.20000100E+02</rscale>
<asrwt>0</asrwt>
<pdfrwt beam="2">  1        4 0.21028172E-03 0.20000100E+02</pdfrwt>
<pdfrwt beam="1">  1       -4 0.11255793E-01 0.20000100E+02</pdfrwt>
<totfact> 0.10593611E+06</totfact>
</mgrwt>
</event>
<event>
 5    1  0.1154861E-006  0.2000771E+02  0.7818608E-02  0.1745175E+00
          4   -1    0    0  501    0  0.00000000000E+00  0.00000000000E+00  0.41861140233E+01  0.44204016351E+01  0.14200000000E+01 0.  1.
         -4   -1    0    0    0  501 -0.00000000000E+00 -0.00000000000E+00 -0.22999354772E+02  0.23043149088E+02  0.14200000000E+01 0. -1.
       1023    2    1    2    0    0  0.00000000000E+00  0.00000000000E+00 -0.18813240748E+02  0.27463550724E+02  0.20007713285E+02 0.  0.
        -11    1    3    3    0    0 -0.44002444901E+01 -0.89840439381E+01 -0.93459995356E+01  0.13690248523E+02  0.51100000000E-03 0.  1.
         11    1    3    3    0    0  0.44002444901E+01  0.89840439381E+01 -0.94672412127E+01  0.13773302200E+02  0.51100000000E-03 0. -1.
<mgrwt>
<rscale>  0 0.20007713E+02</rscale>
<asrwt>0</asrwt>
<pdfrwt beam="1">  1        4 0.66540847E-03 0.20007713E+02</pdfrwt>
<pdfrwt beam="2">  1       -4 0.35597531E-02 0.20007713E+02</pdfrwt>
<totfact> 0.12580530E+06</totfact>
</mgrwt>
</event>
<event>
 5    1  0.1181570E-006  0.2000093E+02  0.7818608E-02  0.1745310E+00
         -4   -1    0    0    0  501 -0.00000000000E+00  0.00000000000E+00  0.67707184978E+01  0.69180220422E+01  0.14200000000E+01 0. -1.
          4   -1    0    0  501    0  0.00000000000E+00 -0.00000000000E+00 -0.14429373269E+02  0.14499076278E+02  0.14200000000E+01 0.  1.
       1023    2    1    2    0    0  0.00000000000E+00  0.00000000000E+00 -0.76586547709E+01  0.21417098321E+02  0.20000927668E+02 0.  0.
        -11    1    3    3    0    0  0.67124010110E+01 -0.74130237768E+01 -0.38236830406E+01  0.10706530769E+02  0.51100000000E-03 0. -1.
         11    1    3    3    0    0 -0.67124010110E+01  0.74130237768E+01 -0.38349717303E+01  0.10710567552E+02  0.51100000000E-03 0.  1.
<mgrwt>
<rscale>  0 0.20000928E+02</rscale>
<asrwt>0</asrwt>
<pdfrwt beam="2">  1        4 0.22365964E-02 0.20000928E+02</pdfrwt>
<pdfrwt beam="1">  1       -4 0.10583418E-02 0.20000928E+02</pdfrwt>
<totfact> 0.12928996E+06</totfact>
</mgrwt>
</event>
<event>
 5    1  0.1154861E-006  0.2000064E+02  0.7818608E-02  0.1745315E+00
         -4   -1    0    0    0  501 -0.00000000000E+00  0.00000000000E+00  0.13947702959E+01  0.19904231154E+01  0.14200000000E+01 0.  1.
          4   -1    0    0  501    0  0.00000000000E+00 -0.00000000000E+00 -0.58478837802E+02  0.58496075686E+02  0.14200000000E+01 0. -1.
       1023    2    1    2    0    0  0.00000000000E+00  0.00000000000E+00 -0.57084067506E+02  0.60486498801E+02  0.20000644345E+02 0.  0.
        -11    1    3    3    0    0 -0.72550600614E+00 -0.99737236058E+01 -0.28754199257E+02  0.30443480365E+02  0.51100000000E-03 0.  1.
         11    1    3    3    0    0  0.72550600614E+00  0.99737236058E+01 -0.28329868248E+02  0.30043018436E+02  0.51100000000E-03 0. -1.
<mgrwt>
<rscale>  0 0.20000644E+02</rscale>
<asrwt>0</asrwt>
<pdfrwt beam="2">  1        4 0.90438881E-02 0.20000644E+02</pdfrwt>
<pdfrwt beam="1">  1       -4 0.26172553E-03 0.20000644E+02</pdfrwt>
<totfact> 0.11099496E+06</totfact>
</mgrwt>
</event>
<event>
 5    1  0.1154861E-006  0.2000448E+02  0.7818608E-02  0.1745239E+00
          4   -1    0    0  501    0  0.00000000000E+00  0.00000000000E+00  0.62274417124E+01  0.63872866134E+01  0.14200000000E+01 0. -1.
         -4   -1    0    0    0  501 -0.00000000000E+00 -0.00000000000E+00 -0.15669237417E+02  0.15733448485E+02  0.14200000000E+01 0.  1.
       1023    2    1    2    0    0  0.00000000000E+00  0.00000000000E+00 -0.94417957048E+01  0.22120735099E+02  0.20004484876E+02 0.  0.
        -11    1    3    3    0    0  0.11552136170E+01 -0.99333158373E+01 -0.45009278441E+01  0.10966477727E+02  0.51100000000E-03 0.  1.
         11    1    3    3    0    0 -0.11552136170E+01  0.99333158373E+01 -0.49408678607E+01  0.11154257371E+02  0.51100000000E-03 0. -1.
<mgrwt>
<rscale>  0 0.20004485E+02</rscale>
<asrwt>0</asrwt>
<pdfrwt beam="1">  1        4 0.97530303E-03 0.20004485E+02</pdfrwt>
<pdfrwt beam="2">  1       -4 0.24278870E-02 0.20004485E+02</pdfrwt>
<totfact> 0.12883329E+06</totfact>
</mgrwt>
</event>
<event>
 5    1  0.1169185E-006  0.2000164E+02  0.7818608E-02  0.1745295E+00
          4   -1    0    0  501    0  0.00000000000E+00  0.00000000000E+00  0.39894304323E+02  0.39919568101E+02  0.14200000000E+01 0.  1.
         -4   -1    0    0    0  501 -0.00000000000E+00 -0.00000000000E+00 -0.22777213678E+01  0.26841040646E+01  0.14200000000E+01 0. -1.
       1023    2    1    2    0    0  0.00000000000E+00  0.00000000000E+00  0.37616582955E+02  0.42603672166E+02  0.20001639153E+02 0.  0.
        -11    1    3    3    0    0  0.87862853726E+01  0.47767427093E+01  0.18845817271E+02  0.21334969192E+02  0.51100000000E-03 0. -1.
         11    1    3    3    0    0 -0.87862853726E+01 -0.47767427093E+01  0.18770765684E+02  0.21268702973E+02  0.51100000000E-03 0.  1.
<mgrwt>
<rscale>  0 0.20001639E+02</rscale>
<asrwt>0</asrwt>
<pdfrwt beam="1">  1        4 0.61707887E-02 0.20001639E+02</pdfrwt>
<pdfrwt beam="2">  1       -4 0.38362226E-03 0.20001639E+02</pdfrwt>
<totfact> 0.11841136E+06</totfact>
</mgrwt>
</event>
<event>
 5    1  0.1186893E-006  0.2000213E+02  0.7818608E-02  0.1745286E+00
          4   -1    0    0  501    0  0.00000000000E+00  0.00000000000E+00  0.45891199019E+01  0.48037924054E+01  0.14200000000E+01 0. -1.
         -4   -1    0    0    0  501 -0.00000000000E+00 -0.00000000000E+00 -0.21058063482E+02  0.21105886326E+02  0.14200000000E+01 0.  1.
       1023    2    1    2    0    0  0.00000000000E+00  0.00000000000E+00 -0.16468943580E+02  0.25909678732E+02  0.20002133619E+02 0.  0.
        -11    1    3    3    0    0  0.99873176265E+01 -0.52270980945E+00 -0.82862557387E+01  0.12987754746E+02  0.51100000000E-03 0.  1.
         11    1    3    3    0    0 -0.99873176265E+01  0.52270980945E+00 -0.81826878417E+01  0.12921923986E+02  0.51100000000E-03 0. -1.
<mgrwt>
<rscale>  0 0.20002134E+02</rscale>
<asrwt>0</asrwt>
<pdfrwt beam="1">  1        4 0.72621041E-03 0.20002134E+02</pdfrwt>
<pdfrwt beam="2">  1       -4 0.32598940E-02 0.20002134E+02</pdfrwt>
<totfact> 0.12672391E+06</totfact>
</mgrwt>
</event>
<event>
 5    1  0.1154861E-006  0.2000022E+02  0.7818608E-02  0.1745324E+00
         -4   -1    0    0    0  501 -0.00000000000E+00  0.00000000000E+00  0.71847184602E+01  0.73236998404E+01  0.14200000000E+01 0. -1.
          4   -1    0    0  501    0  0.00000000000E+00 -0.00000000000E+00 -0.13609128112E+02  0.13683010194E+02  0.14200000000E+01 0.  1.
       1023    2    1    2    0    0  0.00000000000E+00  0.00000000000E+00 -0.64244096520E+01  0.21006710035E+02  0.20000220676E+02 0.  0.
        -11    1    3    3    0    0  0.94740253620E+01  0.32007253636E+01 -0.32333969098E+01  0.10509836119E+02  0.51100000000E-03 0.  1.
         11    1    3    3    0    0 -0.94740253620E+01 -0.32007253636E+01 -0.31910127422E+01  0.10496873915E+02  0.51100000000E-03 0. -1.
<mgrwt>
<rscale>  0 0.20000221E+02</rscale>
<asrwt>0</asrwt>
<pdfrwt beam="2">  1        4 0.21100861E-02 0.20000221E+02</pdfrwt>
<pdfrwt beam="1">  1       -4 0.11217154E-02 0.20000221E+02</pdfrwt>
<totfact> 0.12954062E+06</totfact>
</mgrwt>
</event>
<event>
 5    1  0.1154861E-006  0.2000168E+02  0.7818608E-02  0.1745295E+00
         -4   -1    0    0    0  501 -0.00000000000E+00  0.00000000000E+00  0.41300647055E+00  0.14788422312E+01  0.14200000000E+01 0.  1.
          4   -1    0    0  501    0  0.00000000000E+00 -0.00000000000E+00 -0.10466104647E+03  0.10467067903E+03  0.14200000000E+01 0. -1.
       1023    2    1    2    0    0  0.00000000000E+00  0.00000000000E+00 -0.10424804000E+03  0.10614952126E+03  0.20001675426E+02 0.  0.
        -11    1    3    3    0    0  0.42574402760E+00 -0.99917711143E+01 -0.52110260589E+02  0.53061247694E+02  0.51100000000E-03 0. -1.
         11    1    3    3    0    0 -0.42574402760E+00  0.99917711143E+01 -0.52137779411E+02  0.53088273566E+02  0.51100000000E-03 0.  1.
<mgrwt>
<rscale>  0 0.20001675E+02</rscale>
<asrwt>0</asrwt>
<pdfrwt beam="2">  1        4 0.16184419E-01 0.20001675E+02</pdfrwt>
<pdfrwt beam="1">  1       -4 0.14626787E-03 0.20001675E+02</pdfrwt>
<totfact> 0.96279249E+05</totfact>
</mgrwt>
</event>
<event>
 5    1  0.1154861E-006  0.2001126E+02  0.7818608E-02  0.1745104E+00
          4   -1    0    0  501    0  0.00000000000E+00  0.00000000000E+00  0.48852549791E+02  0.48873183046E+02  0.14200000000E+01 0. -1.
         -4   -1    0    0    0  501 -0.00000000000E+00 -0.00000000000E+00 -0.17796142750E+01  0.22767140725E+01  0.14200000000E+01 0. -1.
       1023    2    1    2    0    0  0.00000000000E+00  0.00000000000E+00  0.47072935515E+02  0.51149897118E+02  0.20011264757E+02 0.  0.
        -11    1    3    3    0    0  0.35064951255E+01  0.93708189502E+01  0.23715814130E+02  0.25739999922E+02  0.51100000000E-03 0. -1.
         11    1    3    3    0    0 -0.35064951255E+01 -0.93708189502E+01  0.23357121386E+02  0.25409897197E+02  0.51100000000E-03 0.  1.
<mgrwt>
<rscale>  0 0.20011265E+02</rscale>
<asrwt>0</asrwt>
<pdfrwt beam="1">  1        4 0.75556025E-02 0.20011265E+02</pdfrwt>
<pdfrwt beam="2">  1       -4 0.31361243E-03 0.20011265E+02</pdfrwt>
<totfact> 0.11459105E+06</totfact>
</mgrwt>
</event>
<event>
 5    1  0.1154861E-006  0.2000469E+02  0.7818608E-02  0.1745235E+00
         -4   -1    0    0    0  501 -0.00000000000E+00  0.00000000000E+00  0.10186752767E+03  0.10187742436E+03  0.14200000000E+01 0. -1.
          4   -1    0    0  501    0  0.00000000000E+00 -0.00000000000E+00 -0.45362022033E+00  0.14906949065E+01  0.14200000000E+01 0.  1.
       1023    2    1    2    0    0  0.00000000000E+00  0.00000000000E+00  0.10141390745E+03  0.10336811927E+03  0.20004685848E+02 0.  0.
        -11    1    3    3    0    0 -0.12988015321E+01 -0.99153577489E+01  0.51811078239E+02  0.52767310271E+02  0.51100000000E-03 0. -1.
         11    1    3    3    0    0  0.12988015321E+01  0.99153577489E+01  0.49602829214E+02  0.50600808996E+02  0.51100000000E-03 0.  1.
<mgrwt>
<rscale>  0 0.20004686E+02</rscale>
<asrwt>0</asrwt>
<pdfrwt beam="2">  1        4 0.15032406E-03 0.20004686E+02</pdfrwt>
<pdfrwt beam="1">  1       -4 0.15752456E-01 0.20004686E+02</pdfrwt>
<totfact> 0.97018500E+05</totfact>
</mgrwt>
</event>
<event>
 5    1  0.1154861E-006  0.2000050E+02  0.7818608E-02  0.1745318E+00
          4   -1    0    0  501    0  0.00000000000E+00  0.00000000000E+00  0.59484023867E+01  0.61155450251E+01  0.14200000000E+01 0. -1.
         -4   -1    0    0    0  501 -0.00000000000E+00 -0.00000000000E+00 -0.16380862946E+02  0.16442295182E+02  0.14200000000E+01 0.  1.
       1023    2    1    2    0    0  0.00000000000E+00  0.00000000000E+00 -0.10432460559E+02  0.22557840207E+02  0.20000498031E+02 0.  0.
        -11    1    3    3    0    0 -0.99150467227E+01 -0.13015580719E+01 -0.51568144087E+01  0.11251441687E+02  0.51100000000E-03 0. -1.
         11    1    3    3    0    0  0.99150467227E+01  0.13015580719E+01 -0.52756461502E+01  0.11306398520E+02  0.51100000000E-03 0.  1.
<mgrwt>
<rscale>  0 0.20000498E+02</rscale>
<asrwt>0</asrwt>
<pdfrwt beam="1">  1        4 0.93272151E-03 0.20000498E+02</pdfrwt>
<pdfrwt beam="2">  1       -4 0.25377154E-02 0.20000498E+02</pdfrwt>
<totfact> 0.12863313E+06</totfact>
</mgrwt>
</event>
<event>
 5    1  0.1154861E-006  0.2000065E+02  0.7818608E-02  0.1745315E+00
          4   -1    0    0  501    0  0.00000000000E+00  0.00000000000E+00  0.58443662787E+02  0.58460911043E+02  0.14200000000E+01 0. -1.
         -4   -1    0    0    0  501 -0.00000000000E+00 -0.00000000000E+00 -0.13959681487E+01  0.19912626829E+01  0.14200000000E+01 0.  1.
       1023    2    1    2    0    0  0.00000000000E+00  0.00000000000E+00  0.57047694638E+02  0.60452173726E+02  0.20000646105E+02 0.  0.
        -11    1    3    3    0    0 -0.50936027574E+01  0.86057034816E+01  0.28344028671E+02  0.30056395044E+02  0.51100000000E-03 0.  1.
         11    1    3    3    0    0  0.50936027574E+01 -0.86057034816E+01  0.28703665967E+02  0.30395778682E+02  0.51100000000E-03 0. -1.
<mgrwt>
<rscale>  0 0.20000646E+02</rscale>
<asrwt>0</asrwt>
<pdfrwt beam="1">  1        4 0.90384521E-02 0.20000646E+02</pdfrwt>
<pdfrwt beam="2">  1       -4 0.26188299E-03 0.20000646E+02</pdfrwt>
<totfact> 0.11100806E+06</totfact>
</mgrwt>
</event>
<event>
 5    1  0.1154861E-006  0.2000032E+02  0.7818608E-02  0.1745322E+00
         -4   -1    0    0    0  501 -0.00000000000E+00  0.00000000000E+00  0.88522345124E+02  0.88533733606E+02  0.14200000000E+01 0. -1.
          4   -1    0    0  501    0  0.00000000000E+00 -0.00000000000E+00 -0.66739194202E+00  0.15690162537E+01  0.14200000000E+01 0.  1.
       1023    2    1    2    0    0  0.00000000000E+00  0.00000000000E+00  0.87854953182E+02  0.90102749860E+02  0.20000318340E+02 0.  0.
        -11    1    3    3    0    0 -0.96571952194E+01  0.25962853438E+01  0.43780382765E+02  0.44907950659E+02  0.51100000000E-03 0.  1.
         11    1    3    3    0    0  0.96571952194E+01 -0.25962853438E+01  0.44074570417E+02  0.45194799200E+02  0.51100000000E-03 0. -1.
<mgrwt>
<rscale>  0 0.20000318E+02</rscale>
<asrwt>0</asrwt>
<pdfrwt beam="2">  1        4 0.17290737E-03 0.20000318E+02</pdfrwt>
<pdfrwt beam="1">  1       -4 0.13689059E-01 0.20000318E+02</pdfrwt>
<totfact> 0.10092255E+06</totfact>
</mgrwt>
</event>
<event>
 5    1  0.1154861E-006  0.2000239E+02  0.7818608E-02  0.1745280E+00
         -4   -1    0    0    0  501 -0.00000000000E+00  0.00000000000E+00  0.41425461177E+02  0.41449791722E+02  0.14200000000E+01 0. -1.
          4   -1    0    0  501    0  0.00000000000E+00 -0.00000000000E+00 -0.21784821524E+01  0.26004200600E+01  0.14200000000E+01 0.  1.
       1023    2    1    2    0    0  0.00000000000E+00  0.00000000000E+00  0.39246979025E+02  0.44050211782E+02  0.20002394742E+02 0.  0.
        -11    1    3    3    0    0  0.21122536647E+01  0.97755987306E+01  0.19620003709E+02  0.22022000179E+02  0.51100000000E-03 0.  1.
         11    1    3    3    0    0 -0.21122536647E+01 -0.97755987306E+01  0.19626975316E+02  0.22028211603E+02  0.51100000000E-03 0. -1.
<mgrwt>
<rscale>  0 0.20002395E+02</rscale>
<asrwt>0</asrwt>
<pdfrwt beam="2">  1        4 0.36947944E-03 0.20002395E+02</pdfrwt>
<pdfrwt beam="1">  1       -4 0.64074763E-02 0.20002395E+02</pdfrwt>
<totfact> 0.11775162E+06</totfact>
</mgrwt>
</event>
<event>
 5    1  0.1154861E-006  0.2000039E+02  0.7818608E-02  0.1745320E+00
         -4   -1    0    0    0  501 -0.00000000000E+00  0.00000000000E+00  0.11071025672E+02  0.11161720720E+02  0.14200000000E+01 0.  1.
          4   -1    0    0  501    0  0.00000000000E+00 -0.00000000000E+00 -0.88485535289E+01  0.89617687737E+01  0.14200000000E+01 0. -1.
       1023    2    1    2    0    0  0.00000000000E+00  0.00000000000E+00  0.22224721429E+01  0.20123489493E+02  0.20000386170E+02 0.  0.
        -11    1    3    3    0    0  0.75746107781E+01  0.65289875380E+01  0.10728598743E+01  0.10057506415E+02  0.51100000000E-03 0. -1.
         11    1    3    3    0    0 -0.75746107781E+01 -0.65289875380E+01  0.11496122686E+01  0.10065983079E+02  0.51100000000E-03 0.  1.
<mgrwt>
<rscale>  0 0.20000386E+02</rscale>
<asrwt>0</asrwt>
<pdfrwt beam="2">  1        4 0.13770013E-02 0.20000386E+02</pdfrwt>
<pdfrwt beam="1">  1       -4 0.17189201E-02 0.20000386E+02</pdfrwt>
<totfact> 0.13006200E+06</totfact>
</mgrwt>
</event>
<event>
 5    1  0.1154861E-006  0.2000112E+02  0.7818608E-02  0.1745306E+00
         -4   -1    0    0    0  501 -0.00000000000E+00  0.00000000000E+00  0.27255744712E+01  0.30732972844E+01  0.14200000000E+01 0. -1.
          4   -1    0    0  501    0  0.00000000000E+00 -0.00000000000E+00 -0.34129957765E+02  0.34159485023E+02  0.14200000000E+01 0.  1.
       1023    2    1    2    0    0  0.00000000000E+00  0.00000000000E+00 -0.31404383294E+02  0.37232782308E+02  0.20001119676E+02 0.  0.
        -11    1    3    3    0    0  0.87143856760E+01  0.49056475514E+01 -0.15837728814E+02  0.18730711409E+02  0.51100000000E-03 0. -1.
         11    1    3    3    0    0 -0.87143856760E+01 -0.49056475514E+01 -0.15566654480E+02  0.18502070899E+02  0.51100000000E-03 0.  1.
<mgrwt>
<rscale>  0 0.20001120E+02</rscale>
<asrwt>0</asrwt>
<pdfrwt beam="2">  1        4 0.52797817E-02 0.20001120E+02</pdfrwt>
<pdfrwt beam="1">  1       -4 0.44833841E-03 0.20001120E+02</pdfrwt>
<totfact> 0.12092035E+06</totfact>
</mgrwt>
</event>
<event>
 5    1  0.1154861E-006  0.2000130E+02  0.7818608E-02  0.1745302E+00
          4   -1    0    0  501    0  0.00000000000E+00  0.00000000000E+00  0.42250681915E+02  0.42274537517E+02  0.14200000000E+01 0. -1.
         -4   -1    0    0    0  501 -0.00000000000E+00 -0.00000000000E+00 -0.21273549886E+01  0.25577410439E+01  0.14200000000E+01 0.  1.
       1023    2    1    2    0    0  0.00000000000E+00  0.00000000000E+00  0.40123326927E+02  0.44832278561E+02  0.20001295891E+02 0.  0.
        -11    1    3    3    0    0  0.65583000981E+01  0.75497069081E+01  0.19927465251E+02  0.22296036557E+02  0.51100000000E-03 0. -1.
         11    1    3    3    0    0 -0.65583000981E+01 -0.75497069081E+01  0.20195861676E+02  0.22536242004E+02  0.51100000000E-03 0.  1.
<mgrwt>
<rscale>  0 0.20001296E+02</rscale>
<asrwt>0</asrwt>
<pdfrwt beam="1">  1        4 0.65350466E-02 0.20001296E+02</pdfrwt>
<pdfrwt beam="2">  1       -4 0.36222705E-03 0.20001296E+02</pdfrwt>
<totfact> 0.11741693E+06</totfact>
</mgrwt>
</event>
<event>
 5    1  0.1154861E-006  0.2000014E+02  0.7818608E-02  0.1745325E+00
          4   -1    0    0  501    0  0.00000000000E+00  0.00000000000E+00  0.21755156112E+02  0.21801449894E+02  0.14200000000E+01 0. -1.
         -4   -1    0    0    0  501 -0.00000000000E+00 -0.00000000000E+00 -0.44344765019E+01  0.46562841243E+01  0.14200000000E+01 0.  1.
       1023    2    1    2    0    0  0.00000000000E+00  0.00000000000E+00  0.17320679611E+02  0.26457734018E+02  0.20000143680E+02 0.  0.
        -11    1    3    3    0    0  0.92171708447E+01 -0.38787086139E+01  0.86981668592E+01  0.13253630667E+02  0.51100000000E-03 0. -1.
         11    1    3    3    0    0 -0.92171708447E+01  0.38787086139E+01  0.86225127513E+01  0.13204103351E+02  0.51100000000E-03 0.  1.
<mgrwt>
<rscale>  0 0.20000144E+02</rscale>
<asrwt>0</asrwt>
<pdfrwt beam="1">  1        4 0.33675703E-02 0.20000144E+02</pdfrwt>
<pdfrwt beam="2">  1       -4 0.70285033E-03 0.20000144E+02</pdfrwt>
<totfact> 0.12644866E+06</totfact>
</mgrwt>
</event>
<event>
 5    1  0.1154861E-006  0.2000379E+02  0.7818608E-02  0.1745253E+00
          4   -1    0    0  501    0  0.00000000000E+00  0.00000000000E+00  0.64972112392E+02  0.64987627966E+02  0.14200000000E+01 0.  1.
         -4   -1    0    0    0  501 -0.00000000000E+00 -0.00000000000E+00 -0.11931855252E+01  0.18547484189E+01  0.14200000000E+01 0. -1.
       1023    2    1    2    0    0  0.00000000000E+00  0.00000000000E+00  0.63778926867E+02  0.66842376385E+02  0.20003793854E+02 0.  0.
        -11    1    3    3    0    0  0.73481837524E+01 -0.67853409654E+01  0.31769663117E+02  0.33306878438E+02  0.51100000000E-03 0.  1.
         11    1    3    3    0    0 -0.73481837524E+01  0.67853409654E+01  0.32009263750E+02  0.33535497947E+02  0.51100000000E-03 0. -1.
<mgrwt>
<rscale>  0 0.20003794E+02</rscale>
<asrwt>0</asrwt>
<pdfrwt beam="1">  1        4 0.10047792E-01 0.20003794E+02</pdfrwt>
<pdfrwt beam="2">  1       -4 0.23564997E-03 0.20003794E+02</pdfrwt>
<totfact> 0.10859578E+06</totfact>
</mgrwt>
</event>
<event>
 5    1  0.1154861E-006  0.2000189E+02  0.7818608E-02  0.1745291E+00
          4   -1    0    0  501    0  0.00000000000E+00  0.00000000000E+00  0.45031076622E+00  0.14896911714E+01  0.14200000000E+01 0. -1.
         -4   -1    0    0    0  501 -0.00000000000E+00 -0.00000000000E+00 -0.10206519033E+03  0.10207506786E+03  0.14200000000E+01 0.  1.
       1023    2    1    2    0    0  0.00000000000E+00  0.00000000000E+00 -0.10161487957E+03  0.10356475903E+03  0.20001888984E+02 0.  0.
        -11    1    3    3    0    0  0.98719846477E+01  0.15973758065E+01 -0.51355404207E+02  0.52320027063E+02  0.51100000000E-03 0. -1.
         11    1    3    3    0    0 -0.98719846477E+01 -0.15973758065E+01 -0.50259475361E+02  0.51244731965E+02  0.51100000000E-03 0.  1.
<mgrwt>
<rscale>  0 0.20001889E+02</rscale>
<asrwt>0</asrwt>
<pdfrwt beam="1">  1        4 0.14999081E-03 0.20001889E+02</pdfrwt>
<pdfrwt beam="2">  1       -4 0.15783041E-01 0.20001889E+02</pdfrwt>
<totfact> 0.96990813E+05</totfact>
</mgrwt>
</event>
<event>
 5    1  0.1154861E-006  0.2000191E+02  0.7818608E-02  0.1745290E+00
          4   -1    0    0  501    0  0.00000000000E+00  0.00000000000E+00  0.38526362697E+02  0.38552522909E+02  0.14200000000E+01 0. -1.
         -4   -1    0    0    0  501 -0.00000000000E+00 -0.00000000000E+00 -0.23727893771E+01  0.27652358721E+01  0.14200000000E+01 0.  1.
       1023    2    1    2    0    0  0.00000000000E+00  0.00000000000E+00  0.36153573319E+02  0.41317758781E+02  0.20001908082E+02 0.  0.
        -11    1    3    3    0    0 -0.86157514062E+01  0.50768337764E+01  0.18318286843E+02  0.20870195174E+02  0.51100000000E-03 0. -1.
         11    1    3    3    0    0  0.86157514062E+01 -0.50768337764E+01  0.17835286476E+02  0.20447563606E+02  0.51100000000E-03 0.  1.
<mgrwt>
<rscale>  0 0.20001908E+02</rscale>
<asrwt>0</asrwt>
<pdfrwt beam="1">  1        4 0.59593325E-02 0.20001908E+02</pdfrwt>
<pdfrwt beam="2">  1       -4 0.39724508E-03 0.20001908E+02</pdfrwt>
<totfact> 0.11899417E+06</totfact>
</mgrwt>
</event>
<event>
 5    1  0.1180704E-006  0.2000081E+02  0.7818608E-02  0.1745312E+00
         -4   -1    0    0    0  501 -0.00000000000E+00  0.00000000000E+00  0.24642407188E+02  0.24683286491E+02  0.14200000000E+01 0.  1.
          4   -1    0    0  501    0  0.00000000000E+00 -0.00000000000E+00 -0.38884424417E+01  0.41396116512E+01  0.14200000000E+01 0. -1.
       1023    2    1    2    0    0  0.00000000000E+00  0.00000000000E+00  0.20753964746E+02  0.28822898143E+02  0.20000810100E+02 0.  0.
        -11    1    3    3    0    0  0.95819807190E+01 -0.28624329298E+01  0.10355408204E+02  0.14395914563E+02  0.51100000000E-03 0. -1.
         11    1    3    3    0    0 -0.95819807190E+01  0.28624329298E+01  0.10398556542E+02  0.14426983579E+02  0.51100000000E-03 0.  1.
<mgrwt>
<rscale>  0 0.20000810E+02</rscale>
<asrwt>0</asrwt>
<pdfrwt beam="2">  1        4 0.62068717E-03 0.20000810E+02</pdfrwt>
<pdfrwt beam="1">  1       -4 0.38136049E-02 0.20000810E+02</pdfrwt>
<totfact> 0.12516653E+06</totfact>
</mgrwt>
</event>
<event>
 5    1  0.1154861E-006  0.2000019E+02  0.7818608E-02  0.1745324E+00
          4   -1    0    0  501    0  0.00000000000E+00  0.00000000000E+00  0.93349450918E+01  0.94423302139E+01  0.14200000000E+01 0.  1.
         -4   -1    0    0    0  501 -0.00000000000E+00 -0.00000000000E+00 -0.10495903675E+02  0.10591524629E+02  0.14200000000E+01 0. -1.
       1023    2    1    2    0    0  0.00000000000E+00  0.00000000000E+00 -0.11609585836E+01  0.20033854843E+02  0.20000187875E+02 0.  0.
        -11    1    3    3    0    0 -0.24302265952E+01  0.97003005600E+01 -0.58729055277E+00  0.10017322133E+02  0.51100000000E-03 0. -1.
         11    1    3    3    0    0  0.24302265952E+01 -0.97003005600E+01 -0.57366803082E+00  0.10016532710E+02  0.51100000000E-03 0.  1.
<mgrwt>
<rscale>  0 0.20000188E+02</rscale>
<asrwt>0</asrwt>
<pdfrwt beam="1">  1        4 0.14517612E-02 0.20000188E+02</pdfrwt>
<pdfrwt beam="2">  1       -4 0.16303703E-02 0.20000188E+02</pdfrwt>
<totfact> 0.13011786E+06</totfact>
</mgrwt>
</event>
<event>
 5    1  0.1154861E-006  0.2000588E+02  0.7818608E-02  0.1745211E+00
         -4   -1    0    0    0  501 -0.00000000000E+00  0.00000000000E+00  0.84187682000E+02  0.84199656772E+02  0.14200000000E+01 0.  1.
          4   -1    0    0  501    0  0.00000000000E+00 -0.00000000000E+00 -0.74793117453E+00  0.16049302296E+01  0.14200000000E+01 0. -1.
       1023    2    1    2    0    0  0.00000000000E+00  0.00000000000E+00  0.83439750825E+02  0.85804587001E+02  0.20005877454E+02 0.  0.
        -11    1    3    3    0    0 -0.60376926665E+01 -0.79723887803E+01  0.40799321222E+02  0.42007110446E+02  0.51100000000E-03 0.  1.
         11    1    3    3    0    0  0.60376926665E+01  0.79723887803E+01  0.42640429604E+02  0.43797476556E+02  0.51100000000E-03 0. -1.
<mgrwt>
<rscale>  0 0.20005877E+02</rscale>
<asrwt>0</asrwt>
<pdfrwt beam="2">  1        4 0.18191047E-03 0.20005877E+02</pdfrwt>
<pdfrwt beam="1">  1       -4 0.13018796E-01 0.20005877E+02</pdfrwt>
<totfact> 0.10219384E+06</totfact>
</mgrwt>
</event>
<event>
 5    1  0.1154861E-006  0.2000036E+02  0.7818608E-02  0.1745321E+00
          4   -1    0    0  501    0  0.00000000000E+00  0.00000000000E+00  0.83495419522E+00  0.16472851933E+01  0.14200000000E+01 0.  1.
         -4   -1    0    0    0  501 -0.00000000000E+00 -0.00000000000E+00 -0.79754581024E+02  0.79767221303E+02  0.14200000000E+01 0. -1.
       1023    2    1    2    0    0  0.00000000000E+00  0.00000000000E+00 -0.78919626829E+02  0.81414506496E+02  0.20000359226E+02 0.  0.
        -11    1    3    3    0    0 -0.27814119140E+01  0.96055601583E+01 -0.39364015648E+02  0.40614391124E+02  0.51100000000E-03 0.  1.
         11    1    3    3    0    0  0.27814119140E+01 -0.96055601583E+01 -0.39555611182E+02  0.40800115372E+02  0.51100000000E-03 0. -1.
<mgrwt>
<rscale>  0 0.20000359E+02</rscale>
<asrwt>0</asrwt>
<pdfrwt beam="1">  1        4 0.19191388E-03 0.20000359E+02</pdfrwt>
<pdfrwt beam="2">  1       -4 0.12333391E-01 0.20000359E+02</pdfrwt>
<totfact> 0.10364796E+06</totfact>
</mgrwt>
</event>
<event>
 5    1  0.1154861E-006  0.2000694E+02  0.7818608E-02  0.1745190E+00
          4   -1    0    0  501    0  0.00000000000E+00  0.00000000000E+00  0.33621724022E+02  0.33651697227E+02  0.14200000000E+01 0. -1.
         -4   -1    0    0    0  501 -0.00000000000E+00 -0.00000000000E+00 -0.27737811352E+01  0.31161292954E+01  0.14200000000E+01 0.  1.
       1023    2    1    2    0    0  0.00000000000E+00  0.00000000000E+00  0.30847942887E+02  0.36767826522E+02  0.20006935967E+02 0.  0.
        -11    1    3    3    0    0 -0.60833907911E+01 -0.79411389627E+01  0.15435578937E+02  0.18393651864E+02  0.51100000000E-03 0.  1.
         11    1    3    3    0    0  0.60833907911E+01  0.79411389627E+01  0.15412363951E+02  0.18374174658E+02  0.51100000000E-03 0. -1.
<mgrwt>
<rscale>  0 0.20006936E+02</rscale>
<asrwt>0</asrwt>
<pdfrwt beam="1">  1        4 0.52012132E-02 0.20006936E+02</pdfrwt>
<pdfrwt beam="2">  1       -4 0.45537565E-03 0.20006936E+02</pdfrwt>
<totfact> 0.12107277E+06</totfact>
</mgrwt>
</event>
<event>
 4    1  0.1154861E-006  0.2004730E+02  0.7818608E-02  0.1744389E+00
          4   -1    0    0  501    0  0.00000000000E+00  0.00000000000E+00  0.14851110316E+02  0.14918843039E+02  0.14200000000E+01 0. -1.
         -4   -1    0    0    0  501 -0.00000000000E+00 -0.00000000000E+00 -0.66066509254E+01  0.67575318312E+01  0.14200000000E+01 0.  1.
        -11    1    1    2    0    0  0.58802099871E+01  0.81173529221E+01  0.42005073898E+01  0.10867959815E+02  0.51100000000E-03 0. -1.
         11    1    1    2    0    0 -0.58802099871E+01 -0.81173529221E+01  0.40439520011E+01  0.10808415055E+02  0.51100000000E-03 0.  1.
<mgrwt>
<rscale>  0 0.20047297E+02</rscale>
<asrwt>0</asrwt>
<pdfrwt beam="1">  1        4 0.23016026E-02 0.20047297E+02</pdfrwt>
<pdfrwt beam="2">  1       -4 0.10332243E-02 0.20047297E+02</pdfrwt>
<totfact> 0.12852965E+06</totfact>
</mgrwt>
</event>
<event>
 5    1  0.1189973E-006  0.2000136E+02  0.7818608E-02  0.1745301E+00
         -4   -1    0    0    0  501 -0.00000000000E+00  0.00000000000E+00  0.43192631529E+01  0.45466948637E+01  0.14200000000E+01 0.  1.
          4   -1    0    0  501    0  0.00000000000E+00 -0.00000000000E+00 -0.22310682161E+02  0.22355825605E+02  0.14200000000E+01 0. -1.
       1023    2    1    2    0    0  0.00000000000E+00  0.00000000000E+00 -0.17991419008E+02  0.26902520469E+02  0.20001361195E+02 0.  0.
        -11    1    3    3    0    0  0.67456478075E+01  0.73830784567E+01 -0.89949595238E+01  0.13450758675E+02  0.51100000000E-03 0.  1.
         11    1    3    3    0    0 -0.67456478075E+01 -0.73830784567E+01 -0.89964594841E+01  0.13451761794E+02  0.51100000000E-03 0. -1.
<mgrwt>
<rscale>  0 0.20001361E+02</rscale>
<asrwt>0</asrwt>
<pdfrwt beam="2">  1        4 0.34533799E-02 0.20001361E+02</pdfrwt>
<pdfrwt beam="1">  1       -4 0.68546935E-03 0.20001361E+02</pdfrwt>
<totfact> 0.12619045E+06</totfact>
</mgrwt>
</event>
<event>
 5    1  0.1160839E-006  0.2000063E+02  0.7818608E-02  0.1745316E+00
          4   -1    0    0  501    0  0.00000000000E+00  0.00000000000E+00  0.10128480968E+02  0.10227537667E+02  0.14200000000E+01 0. -1.
         -4   -1    0    0    0  501 -0.00000000000E+00 -0.00000000000E+00 -0.96745849191E+01  0.97782408110E+01  0.14200000000E+01 0.  1.
       1023    2    1    2    0    0  0.00000000000E+00  0.00000000000E+00  0.45389604917E+00  0.20005778478E+02  0.20000628762E+02 0.  0.
        -11    1    3    3    0    0  0.99931442636E+01  0.37374258216E+00  0.16633813886E+00  0.10001514107E+02  0.51100000000E-03 0.  1.
         11    1    3    3    0    0 -0.99931442636E+01 -0.37374258216E+00  0.28755791031E+00  0.10004264371E+02  0.51100000000E-03 0. -1.
<mgrwt>
<rscale>  0 0.20000629E+02</rscale>
<asrwt>0</asrwt>
<pdfrwt beam="1">  1        4 0.15738211E-02 0.20000629E+02</pdfrwt>
<pdfrwt beam="2">  1       -4 0.15039910E-02 0.20000629E+02</pdfrwt>
<totfact> 0.13012867E+06</totfact>
</mgrwt>
</event>
<event>
 5    1  0.1154861E-006  0.2000031E+02  0.7818608E-02  0.1745322E+00
          4   -1    0    0  501    0  0.00000000000E+00  0.00000000000E+00  0.84874494849E+01  0.86054168265E+01  0.14200000000E+01 0.  1.
         -4   -1    0    0    0  501 -0.00000000000E+00 -0.00000000000E+00 -0.11539356159E+02  0.11626398435E+02  0.14200000000E+01 0. -1.
       1023    2    1    2    0    0  0.00000000000E+00  0.00000000000E+00 -0.30519066743E+01  0.20231815262E+02  0.20000305358E+02 0.  0.
        -11    1    3    3    0    0 -0.99434167246E+01 -0.10636909663E+01 -0.15169784418E+01  0.10114553796E+02  0.51100000000E-03 0. -1.
         11    1    3    3    0    0  0.99434167246E+01  0.10636909663E+01 -0.15349282325E+01  0.10117261466E+02  0.51100000000E-03 0.  1.
<mgrwt>
<rscale>  0 0.20000305E+02</rscale>
<asrwt>0</asrwt>
<pdfrwt beam="1">  1        4 0.13215314E-02 0.20000305E+02</pdfrwt>
<pdfrwt beam="2">  1       -4 0.17910555E-02 0.20000305E+02</pdfrwt>
<totfact> 0.12999841E+06</totfact>
</mgrwt>
</event>
<event>
 5    1  0.1172571E-006  0.2000193E+02  0.7818608E-02  0.1745290E+00
         -4   -1    0    0    0  501 -0.00000000000E+00  0.00000000000E+00  0.13091718897E+02  0.13168504231E+02  0.14200000000E+01 0.  1.
          4   -1    0    0  501    0  0.00000000000E+00 -0.00000000000E+00 -0.74737156288E+01  0.76074190958E+01  0.14200000000E+01 0. -1.
       1023    2    1    2    0    0  0.00000000000E+00  0.00000000000E+00  0.56180032685E+01  0.20775923327E+02  0.20001925641E+02 0.  0.
        -11    1    3    3    0    0  0.43340861531E+01  0.90120489391E+01  0.29480791967E+01  0.10425569532E+02  0.51100000000E-03 0.  1.
         11    1    3    3    0    0 -0.43340861531E+01 -0.90120489391E+01  0.26699240718E+01  0.10350353795E+02  0.51100000000E-03 0. -1.
<mgrwt>
<rscale>  0 0.20001926E+02</rscale>
<asrwt>0</asrwt>
<pdfrwt beam="2">  1        4 0.11659939E-02 0.20001926E+02</pdfrwt>
<pdfrwt beam="1">  1       -4 0.20303020E-02 0.20001926E+02</pdfrwt>
<totfact> 0.12965456E+06</totfact>
</mgrwt>
</event>
<event>
 5    1  0.1154861E-006  0.2000061E+02  0.7818608E-02  0.1745316E+00
          4   -1    0    0  501    0  0.00000000000E+00  0.00000000000E+00  0.18429382903E+01  0.23265471287E+01  0.14200000000E+01 0.  1.
         -4   -1    0    0    0  501 -0.00000000000E+00 -0.00000000000E+00 -0.47475034939E+02  0.47496266616E+02  0.14200000000E+01 0. -1.
       1023    2    1    2    0    0  0.00000000000E+00  0.00000000000E+00 -0.45632096649E+02  0.49822813745E+02  0.20000613113E+02 0.  0.
        -11    1    3    3    0    0  0.49766164374E+01  0.86737619400E+01 -0.22996948391E+02  0.25077090998E+02  0.51100000000E-03 0. -1.
         11    1    3    3    0    0 -0.49766164374E+01 -0.86737619400E+01 -0.22635148258E+02  0.24745722747E+02  0.51100000000E-03 0.  1.
<mgrwt>
<rscale>  0 0.20000613E+02</rscale>
<asrwt>0</asrwt>
<pdfrwt beam="1">  1        4 0.32236289E-03 0.20000613E+02</pdfrwt>
<pdfrwt beam="2">  1       -4 0.73426846E-02 0.20000613E+02</pdfrwt>
<totfact> 0.11526962E+06</totfact>
</mgrwt>
</event>
<event>
 4    1  0.1154861E-006  0.2001739E+02  0.7818608E-02  0.1744982E+00
          4   -1    0    0  501    0  0.00000000000E+00  0.00000000000E+00  0.48220979939E+02  0.48241883320E+02  0.14200000000E+01 0.  1.
         -4   -1    0    0    0  501 -0.00000000000E+00 -0.00000000000E+00 -0.18108010690E+01  0.23011737247E+01  0.14200000000E+01 0. -1.
        -11    1    1    2    0    0 -0.74611722941E+01  0.66708311232E+01  0.23028377813E+02  0.25109266513E+02  0.51100000000E-03 0. -1.
         11    1    1    2    0    0  0.74611722941E+01 -0.66708311232E+01  0.23381801057E+02  0.25433790532E+02  0.51100000000E-03 0.  1.
<mgrwt>
<rscale>  0 0.20017390E+02</rscale>
<asrwt>0</asrwt>
<pdfrwt beam="1">  1        4 0.74579411E-02 0.20017390E+02</pdfrwt>
<pdfrwt beam="2">  1       -4 0.31791371E-03 0.20017390E+02</pdfrwt>
<totfact> 0.11477297E+06</totfact>
</mgrwt>
</event>
<event>
 5    1  0.1154861E-006  0.2000059E+02  0.7818608E-02  0.1745316E+00
         -4   -1    0    0    0  501 -0.00000000000E+00  0.00000000000E+00  0.91911407368E+02  0.91922375972E+02  0.14200000000E+01 0. -1.
          4   -1    0    0  501    0  0.00000000000E+00 -0.00000000000E+00 -0.60895075323E+00  0.15450634355E+01  0.14200000000E+01 0.  1.
       1023    2    1    2    0    0  0.00000000000E+00  0.00000000000E+00  0.91302456615E+02  0.93467439407E+02  0.20000591130E+02 0.  0.
        -11    1    3    3    0    0  0.99813978788E+01  0.61411438765E+00  0.45752652318E+02  0.46832794434E+02  0.51100000000E-03 0.  1.
         11    1    3    3    0    0 -0.99813978788E+01 -0.61411438765E+00  0.45549804297E+02  0.46634644974E+02  0.51100000000E-03 0. -1.
<mgrwt>
<rscale>  0 0.20000591E+02</rscale>
<asrwt>0</asrwt>
<pdfrwt beam="2">  1        4 0.16653717E-03 0.20000591E+02</pdfrwt>
<pdfrwt beam="1">  1       -4 0.14213066E-01 0.20000591E+02</pdfrwt>
<totfact> 0.99907547E+05</totfact>
</mgrwt>
</event>
<event>
 5    1  0.1154861E-006  0.2000061E+02  0.7818608E-02  0.1745316E+00
          4   -1    0    0  501    0  0.00000000000E+00  0.00000000000E+00  0.71811037458E+01  0.73201537558E+01  0.14200000000E+01 0.  1.
         -4   -1    0    0    0  501 -0.00000000000E+00 -0.00000000000E+00 -0.13616428349E+02  0.13690271034E+02  0.14200000000E+01 0. -1.
       1023    2    1    2    0    0  0.00000000000E+00  0.00000000000E+00 -0.64353246034E+01  0.21010424790E+02  0.20000613668E+02 0.  0.
        -11    1    3    3    0    0 -0.69636333814E+01  0.71771843194E+01 -0.32643102949E+01  0.10519500301E+02  0.51100000000E-03 0. -1.
         11    1    3    3    0    0  0.69636333814E+01 -0.71771843194E+01 -0.31710143085E+01  0.10490924489E+02  0.51100000000E-03 0.  1.
<mgrwt>
<rscale>  0 0.20000614E+02</rscale>
<asrwt>0</asrwt>
<pdfrwt beam="1">  1        4 0.11211616E-02 0.20000614E+02</pdfrwt>
<pdfrwt beam="2">  1       -4 0.21112115E-02 0.20000614E+02</pdfrwt>
<totfact> 0.12953324E+06</totfact>
</mgrwt>
</event>
<event>
 5    1  0.1154861E-006  0.2000892E+02  0.7818608E-02  0.1745151E+00
         -4   -1    0    0    0  501 -0.00000000000E+00  0.00000000000E+00  0.11641426645E+01  0.18361993746E+01  0.14200000000E+01 0.  1.
          4   -1    0    0  501    0  0.00000000000E+00 -0.00000000000E+00 -0.66037155116E+02  0.66052420514E+02  0.14200000000E+01 0. -1.
       1023    2    1    2    0    0  0.00000000000E+00  0.00000000000E+00 -0.64873012451E+02  0.67888619889E+02  0.20008922157E+02 0.  0.
        -11    1    3    3    0    0 -0.84268065354E+01  0.53923568345E+01 -0.32349301241E+02  0.33860978598E+02  0.51100000000E-03 0. -1.
         11    1    3    3    0    0  0.84268065354E+01 -0.53923568345E+01 -0.32523711210E+02  0.34027641290E+02  0.51100000000E-03 0.  1.
<mgrwt>
<rscale>  0 0.20008922E+02</rscale>
<asrwt>0</asrwt>
<pdfrwt beam="2">  1        4 0.10212431E-01 0.20008922E+02</pdfrwt>
<pdfrwt beam="1">  1       -4 0.23196985E-03 0.20008922E+02</pdfrwt>
<totfact> 0.10816289E+06</totfact>
</mgrwt>
</event>
<event>
 5    1  0.1156895E-006  0.2000076E+02  0.7818608E-02  0.1745313E+00
         -4   -1    0    0    0  501 -0.00000000000E+00  0.00000000000E+00  0.16014601003E+02  0.16077432795E+02  0.14200000000E+01 0.  1.
          4   -1    0    0  501    0  0.00000000000E+00 -0.00000000000E+00 -0.60878515434E+01  0.62512667847E+01  0.14200000000E+01 0. -1.
       1023    2    1    2    0    0  0.00000000000E+00  0.00000000000E+00  0.99267494593E+01  0.22328699580E+02  0.20000761738E+02 0.  0.
        -11    1    3    3    0    0 -0.86852080782E+01 -0.49572740805E+01  0.49796139374E+01  0.11171569312E+02  0.51100000000E-03 0.  1.
         11    1    3    3    0    0  0.86852080782E+01  0.49572740805E+01  0.49471355220E+01  0.11157130267E+02  0.51100000000E-03 0. -1.
<mgrwt>
<rscale>  0 0.20000762E+02</rscale>
<asrwt>0</asrwt>
<pdfrwt beam="2">  1        4 0.95399616E-03 0.20000762E+02</pdfrwt>
<pdfrwt beam="1">  1       -4 0.24811884E-02 0.20000762E+02</pdfrwt>
<totfact> 0.12876190E+06</totfact>
</mgrwt>
</event>
<event>
 5    1  0.1154861E-006  0.2000009E+02  0.7818608E-02  0.1745326E+00
         -4   -1    0    0    0  501 -0.00000000000E+00  0.00000000000E+00  0.44842830160E+01  0.47037425703E+01  0.14200000000E+01 0.  1.
          4   -1    0    0  501    0  0.00000000000E+00 -0.00000000000E+00 -0.21524251525E+02  0.21571040858E+02  0.14200000000E+01 0. -1.
       1023    2    1    2    0    0  0.00000000000E+00  0.00000000000E+00 -0.17039968509E+02  0.26274783429E+02  0.20000092936E+02 0.  0.
        -11    1    3    3    0    0  0.37655173832E+01  0.92639785743E+01 -0.85496207683E+01  0.13156611864E+02  0.51100000000E-03 0.  1.
         11    1    3    3    0    0 -0.37655173832E+01 -0.92639785743E+01 -0.84903477407E+01  0.13118171565E+02  0.51100000000E-03 0. -1.
<mgrwt>
<rscale>  0 0.20000093E+02</rscale>
<asrwt>0</asrwt>
<pdfrwt beam="2">  1        4 0.33319039E-02 0.20000093E+02</pdfrwt>
<pdfrwt beam="1">  1       -4 0.71037039E-03 0.20000093E+02</pdfrwt>
<totfact> 0.12654951E+06</totfact>
</mgrwt>
</event>
<event>
 5    1  0.1154861E-006  0.2000029E+02  0.7818608E-02  0.1745322E+00
         -4   -1    0    0    0  501 -0.00000000000E+00  0.00000000000E+00  0.74943379239E+01  0.76276799171E+01  0.14200000000E+01 0. -1.
          4   -1    0    0  501    0  0.00000000000E+00 -0.00000000000E+00 -0.13053951465E+02  0.13130957652E+02  0.14200000000E+01 0.  1.
       1023    2    1    2    0    0  0.00000000000E+00  0.00000000000E+00 -0.55596135415E+01  0.20758637569E+02  0.20000293273E+02 0.  0.
        -11    1    3    3    0    0 -0.95372115967E+01  0.30072517086E+01 -0.28120425419E+01  0.10387952224E+02  0.51100000000E-03 0.  1.
         11    1    3    3    0    0  0.95372115967E+01 -0.30072517086E+01 -0.27475709996E+01  0.10370685346E+02  0.51100000000E-03 0. -1.
<mgrwt>
<rscale>  0 0.20000293E+02</rscale>
<asrwt>0</asrwt>
<pdfrwt beam="2">  1        4 0.20244809E-02 0.20000293E+02</pdfrwt>
<pdfrwt beam="1">  1       -4 0.11691557E-02 0.20000293E+02</pdfrwt>
<totfact> 0.12968640E+06</totfact>
</mgrwt>
</event>
<event>
 5    1  0.1154861E-006  0.2000761E+02  0.7818608E-02  0.1745177E+00
         -4   -1    0    0    0  501 -0.00000000000E+00  0.00000000000E+00  0.25023259124E+01  0.28771574465E+01  0.14200000000E+01 0.  1.
          4   -1    0    0  501    0  0.00000000000E+00 -0.00000000000E+00 -0.36817122707E+02  0.36844496528E+02  0.14200000000E+01 0. -1.
       1023    2    1    2    0    0  0.00000000000E+00  0.00000000000E+00 -0.34314796794E+02  0.39721653974E+02  0.20007611437E+02 0.  0.
        -11    1    3    3    0    0 -0.63862106574E+01 -0.76990582880E+01 -0.17415822971E+02  0.20084075162E+02  0.51100000000E-03 0.  1.
         11    1    3    3    0    0  0.63862106574E+01  0.76990582880E+01 -0.16898973823E+02  0.19637578812E+02  0.51100000000E-03 0. -1.
<mgrwt>
<rscale>  0 0.20007611E+02</rscale>
<asrwt>0</asrwt>
<pdfrwt beam="2">  1        4 0.56951112E-02 0.20007611E+02</pdfrwt>
<pdfrwt beam="1">  1       -4 0.41591212E-03 0.20007611E+02</pdfrwt>
<totfact> 0.11966363E+06</totfact>
</mgrwt>
</event>
<event>
 5    1  0.1154861E-006  0.2000038E+02  0.7818608E-02  0.1745320E+00
          4   -1    0    0  501    0  0.00000000000E+00  0.00000000000E+00  0.63875263919E+01  0.65434618824E+01  0.14200000000E+01 0.  1.
         -4   -1    0    0    0  501 -0.00000000000E+00 -0.00000000000E+00 -0.15278058286E+02  0.15343906444E+02  0.14200000000E+01 0. -1.
       1023    2    1    2    0    0  0.00000000000E+00  0.00000000000E+00 -0.88905318937E+01  0.21887368327E+02  0.20000383369E+02 0.  0.
        -11    1    3    3    0    0  0.79551155660E+01 -0.60596927259E+01 -0.44558686871E+01  0.10947990940E+02  0.51100000000E-03 0. -1.
         11    1    3    3    0    0 -0.79551155660E+01  0.60596927259E+01 -0.44346632065E+01  0.10939377387E+02  0.51100000000E-03 0.  1.
<mgrwt>
<rscale>  0 0.20000383E+02</rscale>
<asrwt>0</asrwt>
<pdfrwt beam="1">  1        4 0.99975665E-03 0.20000383E+02</pdfrwt>
<pdfrwt beam="2">  1       -4 0.23675308E-02 0.20000383E+02</pdfrwt>
<totfact> 0.12902263E+06</totfact>
</mgrwt>
</event>
<event>
 5    1  0.1154861E-006  0.2000068E+02  0.7818608E-02  0.1745314E+00
          4   -1    0    0  501    0  0.00000000000E+00  0.00000000000E+00  0.12698614903E+01  0.19049798436E+01  0.14200000000E+01 0. -1.
         -4   -1    0    0    0  501 -0.00000000000E+00 -0.00000000000E+00 -0.62354759684E+02  0.62370926362E+02  0.14200000000E+01 0.  1.
       1023    2    1    2    0    0  0.00000000000E+00  0.00000000000E+00 -0.61084898194E+02  0.64275906206E+02  0.20000683268E+02 0.  0.
        -11    1    3    3    0    0  0.33074803774E+01 -0.94372646032E+01 -0.30305356116E+02  0.31912630716E+02  0.51100000000E-03 0.  1.
         11    1    3    3    0    0 -0.33074803774E+01  0.94372646032E+01 -0.30779542078E+02  0.32363275490E+02  0.51100000000E-03 0. -1.
<mgrwt>
<rscale>  0 0.20000683E+02</rscale>
<asrwt>0</asrwt>
<pdfrwt beam="1">  1        4 0.24546220E-03 0.20000683E+02</pdfrwt>
<pdfrwt beam="2">  1       -4 0.96431369E-02 0.20000683E+02</pdfrwt>
<totfact> 0.10956931E+06</totfact>
</mgrwt>
</event>
<event>
 5    1  0.1163559E-006  0.2000088E+02  0.7818608E-02  0.1745311E+00
          4   -1    0    0  501    0  0.00000000000E+00  0.00000000000E+00  0.27488825948E+01  0.30939869942E+01  0.14200000000E+01 0. -1.
         -4   -1    0    0    0  501 -0.00000000000E+00 -0.00000000000E+00 -0.33871913438E+02  0.33901665445E+02  0.14200000000E+01 0.  1.
       1023    2    1    2    0    0  0.00000000000E+00  0.00000000000E+00 -0.31123030843E+02  0.36995652439E+02  0.20000881244E+02 0.  0.
        -11    1    3    3    0    0 -0.36543997120E+00  0.99937287880E+01 -0.15608706803E+02  0.18537526529E+02  0.51100000000E-03 0. -1.
         11    1    3    3    0    0  0.36543997120E+00 -0.99937287880E+01 -0.15514324040E+02  0.18458125910E+02  0.51100000000E-03 0.  1.
<mgrwt>
<rscale>  0 0.20000881E+02</rscale>
<asrwt>0</asrwt>
<pdfrwt beam="1">  1        4 0.45174015E-03 0.20000881E+02</pdfrwt>
<pdfrwt beam="2">  1       -4 0.52398984E-02 0.20000881E+02</pdfrwt>
<totfact> 0.12103726E+06</totfact>
</mgrwt>
</event>
<event>
 5    1  0.1154861E-006  0.2000921E+02  0.7818608E-02  0.1745145E+00
         -4   -1    0    0    0  501 -0.00000000000E+00  0.00000000000E+00  0.37959813869E+01  0.40528847368E+01  0.14200000000E+01 0. -1.
          4   -1    0    0  501    0  0.00000000000E+00 -0.00000000000E+00 -0.25227342683E+02  0.25267275652E+02  0.14200000000E+01 0.  1.
       1023    2    1    2    0    0  0.00000000000E+00  0.00000000000E+00 -0.21431361297E+02  0.29320160389E+02  0.20009211834E+02 0.  0.
        -11    1    3    3    0    0  0.97612399237E+01 -0.21748161336E+01 -0.11131456425E+02  0.14963988521E+02  0.51100000000E-03 0. -1.
         11    1    3    3    0    0 -0.97612399237E+01  0.21748161336E+01 -0.10299904872E+02  0.14356171868E+02  0.51100000000E-03 0.  1.
<mgrwt>
<rscale>  0 0.20009212E+02</rscale>
<asrwt>0</asrwt>
<pdfrwt beam="2">  1        4 0.39039631E-02 0.20009212E+02</pdfrwt>
<pdfrwt beam="1">  1       -4 0.60683071E-03 0.20009212E+02</pdfrwt>
<totfact> 0.12479715E+06</totfact>
</mgrwt>
</event>
<event>
 5    1  0.1154861E-006  0.2000154E+02  0.7818608E-02  0.1745297E+00
          4   -1    0    0  501    0  0.00000000000E+00  0.00000000000E+00  0.36688219940E+02  0.36715689867E+02  0.14200000000E+01 0.  1.
         -4   -1    0    0    0  501 -0.00000000000E+00 -0.00000000000E+00 -0.25106555884E+01  0.28844048751E+01  0.14200000000E+01 0. -1.
       1023    2    1    2    0    0  0.00000000000E+00  0.00000000000E+00  0.34177564352E+02  0.39600094742E+02  0.20001539904E+02 0.  0.
        -11    1    3    3    0    0  0.97060803821E+01  0.24093383016E+01  0.16989949354E+02  0.19714747950E+02  0.51100000000E-03 0.  1.
         11    1    3    3    0    0 -0.97060803821E+01 -0.24093383016E+01  0.17187614998E+02  0.19885346791E+02  0.51100000000E-03 0. -1.
<mgrwt>
<rscale>  0 0.20001540E+02</rscale>
<asrwt>0</asrwt>
<pdfrwt beam="1">  1        4 0.56752042E-02 0.20001540E+02</pdfrwt>
<pdfrwt beam="2">  1       -4 0.41711774E-03 0.20001540E+02</pdfrwt>
<totfact> 0.11979396E+06</totfact>
</mgrwt>
</event>
<event>
 5    1  0.1154861E-006  0.2000026E+02  0.7818608E-02  0.1745323E+00
         -4   -1    0    0    0  501 -0.00000000000E+00  0.00000000000E+00  0.29353874949E+01  0.32608127430E+01  0.14200000000E+01 0.  1.
          4   -1    0    0  501    0  0.00000000000E+00 -0.00000000000E+00 -0.31936659176E+02  0.31968212327E+02  0.14200000000E+01 0. -1.
       1023    2    1    2    0    0  0.00000000000E+00  0.00000000000E+00 -0.29001271682E+02  0.35229025070E+02  0.20000261203E+02 0.  0.
        -11    1    3    3    0    0  0.85643228490E+01 -0.51628365244E+01 -0.14518680837E+02  0.17629367554E+02  0.51100000000E-03 0. -1.
         11    1    3    3    0    0 -0.85643228490E+01  0.51628365244E+01 -0.14482590844E+02  0.17599657515E+02  0.51100000000E-03 0.  1.
<mgrwt>
<rscale>  0 0.20000261E+02</rscale>
<asrwt>0</asrwt>
<pdfrwt beam="2">  1        4 0.49407918E-02 0.20000261E+02</pdfrwt>
<pdfrwt beam="1">  1       -4 0.47905798E-03 0.20000261E+02</pdfrwt>
<totfact> 0.12190398E+06</totfact>
</mgrwt>
</event>
<event>
 5    1  0.1203839E-006  0.2000080E+02  0.7818608E-02  0.1745312E+00
         -4   -1    0    0    0  501 -0.00000000000E+00  0.00000000000E+00  0.71910838752E+01  0.73299445632E+01  0.14200000000E+01 0. -1.
          4   -1    0    0  501    0  0.00000000000E+00 -0.00000000000E+00 -0.13598052171E+02  0.13671994106E+02  0.14200000000E+01 0.  1.
       1023    2    1    2    0    0  0.00000000000E+00  0.00000000000E+00 -0.64069682959E+01  0.21001938670E+02  0.20000804612E+02 0.  0.
        -11    1    3    3    0    0 -0.50770756909E+01  0.86157386958E+01 -0.32243582875E+01  0.10507337316E+02  0.51100000000E-03 0. -1.
         11    1    3    3    0    0  0.50770756909E+01 -0.86157386958E+01 -0.31826100084E+01  0.10494601354E+02  0.51100000000E-03 0.  1.
<mgrwt>
<rscale>  0 0.20000805E+02</rscale>
<asrwt>0</asrwt>
<pdfrwt beam="2">  1        4 0.21083775E-02 0.20000805E+02</pdfrwt>
<pdfrwt beam="1">  1       -4 0.11226900E-02 0.20000805E+02</pdfrwt>
<totfact> 0.12953572E+06</totfact>
</mgrwt>
</event>
<event>
 5    1  0.1154861E-006  0.2000758E+02  0.7818608E-02  0.1745177E+00
          4   -1    0    0  501    0  0.00000000000E+00  0.00000000000E+00  0.56160867081E+02  0.56178816215E+02  0.14200000000E+01 0.  1.
         -4   -1    0    0    0  501 -0.00000000000E+00 -0.00000000000E+00 -0.14778442052E+01  0.20494934728E+01  0.14200000000E+01 0. -1.
       1023    2    1    2    0    0  0.00000000000E+00  0.00000000000E+00  0.54683022876E+02  0.58228309688E+02  0.20007575021E+02 0.  0.
        -11    1    3    3    0    0  0.85667278338E+01  0.51639518540E+01  0.26924414034E+02  0.28722452818E+02  0.51100000000E-03 0. -1.
         11    1    3    3    0    0 -0.85667278338E+01 -0.51639518540E+01  0.27758608842E+02  0.29505856870E+02  0.51100000000E-03 0.  1.
<mgrwt>
<rscale>  0 0.20007575E+02</rscale>
<asrwt>0</asrwt>
<pdfrwt beam="1">  1        4 0.86854879E-02 0.20007575E+02</pdfrwt>
<pdfrwt beam="2">  1       -4 0.27271435E-03 0.20007575E+02</pdfrwt>
<totfact> 0.11178812E+06</totfact>
</mgrwt>
</event>
<event>
 5    1  0.1154861E-006  0.2000005E+02  0.7818608E-02  0.1745327E+00
         -4   -1    0    0    0  501 -0.00000000000E+00  0.00000000000E+00  0.43613836947E+02  0.43636947341E+02  0.14200000000E+01 0. -1.
          4   -1    0    0  501    0  0.00000000000E+00 -0.00000000000E+00 -0.20469252449E+01  0.24912452626E+01  0.14200000000E+01 0.  1.
       1023    2    1    2    0    0  0.00000000000E+00  0.00000000000E+00  0.41566911703E+02  0.46128192604E+02  0.20000050111E+02 0.  0.
        -11    1    3    3    0    0  0.96871120539E+01 -0.24819069857E+01  0.20731954573E+02  0.23017687610E+02  0.51100000000E-03 0. -1.
         11    1    3    3    0    0 -0.96871120539E+01  0.24819069857E+01  0.20834957129E+02  0.23110504994E+02  0.51100000000E-03 0.  1.
<mgrwt>
<rscale>  0 0.20000050E+02</rscale>
<asrwt>0</asrwt>
<pdfrwt beam="2">  1        4 0.35086775E-03 0.20000050E+02</pdfrwt>
<pdfrwt beam="1">  1       -4 0.67457775E-02 0.20000050E+02</pdfrwt>
<totfact> 0.11686149E+06</totfact>
</mgrwt>
</event>
<event>
 5    1  0.1154861E-006  0.2000024E+02  0.7818608E-02  0.1745323E+00
          4   -1    0    0  501    0  0.00000000000E+00  0.00000000000E+00  0.27679433164E+02  0.27715833386E+02  0.14200000000E+01 0. -1.
         -4   -1    0    0    0  501 -0.00000000000E+00 -0.00000000000E+00 -0.34329662584E+01  0.37150581868E+01  0.14200000000E+01 0.  1.
       1023    2    1    2    0    0  0.00000000000E+00  0.00000000000E+00  0.24246466906E+02  0.31430891573E+02  0.20000244690E+02 0.  0.
        -11    1    3    3    0    0 -0.56391513888E+01  0.82584640892E+01  0.12144847183E+02  0.15732119084E+02  0.51100000000E-03 0. -1.
         11    1    3    3    0    0  0.56391513888E+01 -0.82584640892E+01  0.12101619723E+02  0.15698772489E+02  0.51100000000E-03 0.  1.
<mgrwt>
<rscale>  0 0.20000245E+02</rscale>
<asrwt>0</asrwt>
<pdfrwt beam="1">  1        4 0.42828736E-02 0.20000245E+02</pdfrwt>
<pdfrwt beam="2">  1       -4 0.55264806E-03 0.20000245E+02</pdfrwt>
<totfact> 0.12381324E+06</totfact>
</mgrwt>
</event>
<event>
 4    1  0.1154861E-006  0.2002480E+02  0.7818608E-02  0.1744835E+00
          4   -1    0    0  501    0  0.00000000000E+00  0.00000000000E+00  0.46233065862E+02  0.46254867625E+02  0.14200000000E+01 0. -1.
         -4   -1    0    0    0  501 -0.00000000000E+00 -0.00000000000E+00 -0.19110450065E+01  0.23808597223E+01  0.14200000000E+01 0.  1.
        -11    1    1    2    0    0  0.38595366603E+01 -0.92287160287E+01  0.23199684423E+02  0.25264413319E+02  0.51100000000E-03 0.  1.
         11    1    1    2    0    0 -0.38595366603E+01  0.92287160287E+01  0.21122336433E+02  0.23371314028E+02  0.51100000000E-03 0. -1.
<mgrwt>
<rscale>  0 0.20024796E+02</rscale>
<asrwt>0</asrwt>
<pdfrwt beam="1">  1        4 0.71505959E-02 0.20024796E+02</pdfrwt>
<pdfrwt beam="2">  1       -4 0.33182358E-03 0.20024796E+02</pdfrwt>
<totfact> 0.11549056E+06</totfact>
</mgrwt>
</event>
<event>
 5    1  0.1154861E-006  0.2000245E+02  0.7818608E-02  0.1745279E+00
         -4   -1    0    0    0  501 -0.00000000000E+00  0.00000000000E+00  0.41261000042E+02  0.41285427507E+02  0.14200000000E+01 0. -1.
          4   -1    0    0  501    0  0.00000000000E+00 -0.00000000000E+00 -0.21888529150E+01  0.26091142335E+01  0.14200000000E+01 0.  1.
       1023    2    1    2    0    0  0.00000000000E+00  0.00000000000E+00  0.39072147127E+02  0.43894541741E+02  0.20002452688E+02 0.  0.
        -11    1    3    3    0    0 -0.92426248856E+01  0.38185228400E+01  0.19247465490E+02  0.21690370202E+02  0.51100000000E-03 0.  1.
         11    1    3    3    0    0  0.92426248856E+01 -0.38185228400E+01  0.19824681638E+02  0.22204171539E+02  0.51100000000E-03 0. -1.
<mgrwt>
<rscale>  0 0.20002453E+02</rscale>
<asrwt>0</asrwt>
<pdfrwt beam="2">  1        4 0.37095345E-03 0.20002453E+02</pdfrwt>
<pdfrwt beam="1">  1       -4 0.63820527E-02 0.20002453E+02</pdfrwt>
<totfact> 0.11782049E+06</totfact>
</mgrwt>
</event>
<event>
 5    1  0.1154861E-006  0.2000130E+02  0.7818608E-02  0.1745302E+00
         -4   -1    0    0    0  501 -0.00000000000E+00  0.00000000000E+00  0.63791431989E+02  0.63807234662E+02  0.14200000000E+01 0.  1.
          4   -1    0    0  501    0  0.00000000000E+00 -0.00000000000E+00 -0.12269216337E+01  0.18766290777E+01  0.14200000000E+01 0. -1.
       1023    2    1    2    0    0  0.00000000000E+00  0.00000000000E+00  0.62564510356E+02  0.65683863740E+02  0.20001299952E+02 0.  0.
        -11    1    3    3    0    0  0.41108009147E+01 -0.91164121930E+01  0.31042181911E+02  0.32613259781E+02  0.51100000000E-03 0.  1.
         11    1    3    3    0    0 -0.41108009147E+01  0.91164121930E+01  0.31522328444E+02  0.33070603959E+02  0.51100000000E-03 0. -1.
<mgrwt>
<rscale>  0 0.20001300E+02</rscale>
<asrwt>0</asrwt>
<pdfrwt beam="2">  1        4 0.23995027E-03 0.20001300E+02</pdfrwt>
<pdfrwt beam="1">  1       -4 0.98652592E-02 0.20001300E+02</pdfrwt>
<totfact> 0.10904459E+06</totfact>
</mgrwt>
</event>
<event>
 5    1  0.1169689E-006  0.2000138E+02  0.7818608E-02  0.1745301E+00
          4   -1    0    0  501    0  0.00000000000E+00  0.00000000000E+00  0.17469607352E+02  0.17527223996E+02  0.14200000000E+01 0. -1.
         -4   -1    0    0    0  501 -0.00000000000E+00 -0.00000000000E+00 -0.55687291614E+01  0.57469247840E+01  0.14200000000E+01 0.  1.
       1023    2    1    2    0    0  0.00000000000E+00  0.00000000000E+00  0.11900878190E+02  0.23274148780E+02  0.20001377446E+02 0.  0.
        -11    1    3    3    0    0 -0.99375335823E+01  0.11191857072E+01  0.60451467205E+01  0.11685501679E+02  0.51100000000E-03 0.  1.
         11    1    3    3    0    0  0.99375335823E+01 -0.11191857072E+01  0.58557314698E+01  0.11588647102E+02  0.51100000000E-03 0. -1.
<mgrwt>
<rscale>  0 0.20001377E+02</rscale>
<asrwt>0</asrwt>
<pdfrwt beam="1">  1        4 0.27057713E-02 0.20001377E+02</pdfrwt>
<pdfrwt beam="2">  1       -4 0.87486697E-03 0.20001377E+02</pdfrwt>
<totfact> 0.12821119E+06</totfact>
</mgrwt>
</event>
<event>
 4    1  0.1322834E-006  0.2045273E+02  0.7818608E-02  0.1736472E+00
          4   -1    0    0  501    0  0.00000000000E+00  0.00000000000E+00  0.34372089609E+02  0.34401409042E+02  0.14200000000E+01 0.  1.
         -4   -1    0    0    0  501 -0.00000000000E+00 -0.00000000000E+00 -0.28444823220E+01  0.31792262707E+01  0.14200000000E+01 0. -1.
        -11    1    1    2    0    0 -0.42165443740E+00  0.10174056992E+02  0.14031045473E+02  0.17336650930E+02  0.51100000000E-03 0.  1.
         11    1    1    2    0    0  0.42165443740E+00 -0.10174056992E+02  0.17496561814E+02  0.20243984383E+02  0.51100000000E-03 0. -1.
<mgrwt>
<rscale>  0 0.20452729E+02</rscale>
<asrwt>0</asrwt>
<pdfrwt beam="1">  1        4 0.53160188E-02 0.20452729E+02</pdfrwt>
<pdfrwt beam="2">  1       -4 0.46561753E-03 0.20452729E+02</pdfrwt>
<totfact> 0.11538471E+06</totfact>
</mgrwt>
</event>
<event>
 5    1  0.1154861E-006  0.2000441E+02  0.7818608E-02  0.1745240E+00
          4   -1    0    0  501    0  0.00000000000E+00  0.00000000000E+00  0.14256393374E+01  0.20121748235E+01  0.14200000000E+01 0.  1.
         -4   -1    0    0    0  501 -0.00000000000E+00 -0.00000000000E+00 -0.57605394577E+02  0.57622893752E+02  0.14200000000E+01 0. -1.
       1023    2    1    2    0    0  0.00000000000E+00  0.00000000000E+00 -0.56179755239E+02  0.59635068575E+02  0.20004412144E+02 0.  0.
        -11    1    3    3    0    0 -0.55565764651E+01 -0.83154695950E+01 -0.27652260749E+02  0.29405273360E+02  0.51100000000E-03 0.  1.
         11    1    3    3    0    0  0.55565764651E+01  0.83154695950E+01 -0.28527494490E+02  0.30229795215E+02  0.51100000000E-03 0. -1.
<mgrwt>
<rscale>  0 0.20004412E+02</rscale>
<asrwt>0</asrwt>
<pdfrwt beam="1">  1        4 0.26579338E-03 0.20004412E+02</pdfrwt>
<pdfrwt beam="2">  1       -4 0.89088311E-02 0.20004412E+02</pdfrwt>
<totfact> 0.11127949E+06</totfact>
</mgrwt>
</event>
<event>
 5    1  0.1154861E-006  0.2000145E+02  0.7818608E-02  0.1745299E+00
          4   -1    0    0  501    0  0.00000000000E+00  0.00000000000E+00  0.10008884366E+03  0.10009891620E+03  0.14200000000E+01 0.  1.
         -4   -1    0    0    0  501 -0.00000000000E+00 -0.00000000000E+00 -0.47945782526E+00  0.14987594224E+01  0.14200000000E+01 0. -1.
       1023    2    1    2    0    0  0.00000000000E+00  0.00000000000E+00  0.99609385836E+02  0.10159767563E+03  0.20001448605E+02 0.  0.
        -11    1    3    3    0    0 -0.93381847058E+01 -0.35776562831E+01  0.50387582201E+02  0.51370319820E+02  0.51100000000E-03 0.  1.
         11    1    3    3    0    0  0.93381847058E+01  0.35776562831E+01  0.49221803635E+02  0.50227355808E+02  0.51100000000E-03 0. -1.
<mgrwt>
<rscale>  0 0.20001449E+02</rscale>
<asrwt>0</asrwt>
<pdfrwt beam="1">  1        4 0.15477465E-01 0.20001449E+02</pdfrwt>
<pdfrwt beam="2">  1       -4 0.15294538E-03 0.20001449E+02</pdfrwt>
<totfact> 0.97545815E+05</totfact>
</mgrwt>
</event>
<event>
 5    1  0.1154861E-006  0.2000202E+02  0.7818608E-02  0.1745288E+00
          4   -1    0    0  501    0  0.00000000000E+00  0.00000000000E+00  0.33963873603E+02  0.33993545125E+02  0.14200000000E+01 0. -1.
         -4   -1    0    0    0  501 -0.00000000000E+00 -0.00000000000E+00 -0.27408671388E+01  0.30868677770E+01  0.14200000000E+01 0.  1.
       1023    2    1    2    0    0  0.00000000000E+00  0.00000000000E+00  0.31223006464E+02  0.37080412902E+02  0.20002022104E+02 0.  0.
        -11    1    3    3    0    0 -0.43321319079E+01  0.90137461282E+01  0.15477363631E+02  0.18427256208E+02  0.51100000000E-03 0. -1.
         11    1    3    3    0    0  0.43321319079E+01 -0.90137461282E+01  0.15745642833E+02  0.18653156693E+02  0.51100000000E-03 0.  1.
<mgrwt>
<rscale>  0 0.20002022E+02</rscale>
<asrwt>0</asrwt>
<pdfrwt beam="1">  1        4 0.52541088E-02 0.20002022E+02</pdfrwt>
<pdfrwt beam="2">  1       -4 0.45056976E-03 0.20002022E+02</pdfrwt>
<totfact> 0.12098249E+06</totfact>
</mgrwt>
</event>
<event>
 5    1  0.1154861E-006  0.2000082E+02  0.7818608E-02  0.1745312E+00
          4   -1    0    0  501    0  0.00000000000E+00  0.00000000000E+00  0.49833126340E+00  0.15049033351E+01  0.14200000000E+01 0.  1.
         -4   -1    0    0    0  501 -0.00000000000E+00 -0.00000000000E+00 -0.98832444398E+02  0.98842644975E+02  0.14200000000E+01 0. -1.
       1023    2    1    2    0    0  0.00000000000E+00  0.00000000000E+00 -0.98334113135E+02  0.10034754831E+03  0.20000816131E+02 0.  0.
        -11    1    3    3    0    0 -0.83612340851E+01  0.54859072707E+01 -0.48904087328E+02  0.49916081293E+02  0.51100000000E-03 0.  1.
         11    1    3    3    0    0  0.83612340851E+01 -0.54859072707E+01 -0.49430025807E+02  0.50431467017E+02  0.51100000000E-03 0. -1.
<mgrwt>
<rscale>  0 0.20000816E+02</rscale>
<asrwt>0</asrwt>
<pdfrwt beam="1">  1        4 0.15487971E-03 0.20000816E+02</pdfrwt>
<pdfrwt beam="2">  1       -4 0.15283197E-01 0.20000816E+02</pdfrwt>
<totfact> 0.97905677E+05</totfact>
</mgrwt>
</event>
<event>
 5    1  0.1202726E-006  0.2000114E+02  0.7818608E-02  0.1745305E+00
          4   -1    0    0  501    0  0.00000000000E+00  0.00000000000E+00  0.37701026219E+01  0.40286565726E+01  0.14200000000E+01 0. -1.
         -4   -1    0    0    0  501 -0.00000000000E+00 -0.00000000000E+00 -0.25368960341E+02  0.25408670741E+02  0.14200000000E+01 0.  1.
       1023    2    1    2    0    0  0.00000000000E+00  0.00000000000E+00 -0.21598857720E+02  0.29437327313E+02  0.20001139581E+02 0.  0.
        -11    1    3    3    0    0 -0.48119014093E+01  0.87663919340E+01 -0.10673051107E+02  0.14625937334E+02  0.51100000000E-03 0.  1.
         11    1    3    3    0    0  0.48119014093E+01 -0.87663919340E+01 -0.10925806612E+02  0.14811389979E+02  0.51100000000E-03 0. -1.
<mgrwt>
<rscale>  0 0.20001140E+02</rscale>
<asrwt>0</asrwt>
<pdfrwt beam="1">  1        4 0.60295922E-03 0.20001140E+02</pdfrwt>
<pdfrwt beam="2">  1       -4 0.39258603E-02 0.20001140E+02</pdfrwt>
<totfact> 0.12483788E+06</totfact>
</mgrwt>
</event>
<event>
 5    1  0.1154861E-006  0.2000412E+02  0.7818608E-02  0.1745246E+00
          4   -1    0    0  501    0  0.00000000000E+00  0.00000000000E+00  0.11025524114E+02  0.11116590394E+02  0.14200000000E+01 0. -1.
         -4   -1    0    0    0  501 -0.00000000000E+00 -0.00000000000E+00 -0.88886319568E+01  0.90013431256E+01  0.14200000000E+01 0.  1.
       1023    2    1    2    0    0  0.00000000000E+00  0.00000000000E+00  0.21368921575E+01  0.20117933520E+02  0.20004123101E+02 0.  0.
        -11    1    3    3    0    0  0.26918478906E+01 -0.96330243103E+01  0.10741851435E+01  0.10059576354E+02  0.51100000000E-03 0.  1.
         11    1    3    3    0    0 -0.26918478906E+01  0.96330243103E+01  0.10627070140E+01  0.10058357166E+02  0.51100000000E-03 0. -1.
<mgrwt>
<rscale>  0 0.20004123E+02</rscale>
<asrwt>0</asrwt>
<pdfrwt beam="1">  1        4 0.17119097E-02 0.20004123E+02</pdfrwt>
<pdfrwt beam="2">  1       -4 0.13831570E-02 0.20004123E+02</pdfrwt>
<totfact> 0.13001574E+06</totfact>
</mgrwt>
</event>
<event>
 5    1  0.1154861E-006  0.2000110E+02  0.7818608E-02  0.1745306E+00
          4   -1    0    0  501    0  0.00000000000E+00  0.00000000000E+00  0.44275416613E+00  0.14874243684E+01  0.14200000000E+01 0.  1.
         -4   -1    0    0    0  501 -0.00000000000E+00 -0.00000000000E+00 -0.10257655022E+03  0.10258637851E+03  0.14200000000E+01 0. -1.
       1023    2    1    2    0    0  0.00000000000E+00  0.00000000000E+00 -0.10213379605E+03  0.10407380288E+03  0.20001103680E+02 0.  0.
        -11    1    3    3    0    0  0.94342732444E+01 -0.33174079343E+01 -0.50972403385E+02  0.51944168241E+02  0.51100000000E-03 0. -1.
         11    1    3    3    0    0 -0.94342732444E+01  0.33174079343E+01 -0.51161392669E+02  0.52129634635E+02  0.51100000000E-03 0.  1.
<mgrwt>
<rscale>  0 0.20001104E+02</rscale>
<asrwt>0</asrwt>
<pdfrwt beam="1">  1        4 0.14923138E-03 0.20001104E+02</pdfrwt>
<pdfrwt beam="2">  1       -4 0.15862114E-01 0.20001104E+02</pdfrwt>
<totfact> 0.96857004E+05</totfact>
</mgrwt>
</event>
<event>
 5    1  0.1208511E-006  0.2000107E+02  0.7818608E-02  0.1745307E+00
         -4   -1    0    0    0  501 -0.00000000000E+00  0.00000000000E+00  0.10997661281E+02  0.11088956382E+02  0.14200000000E+01 0. -1.
          4   -1    0    0  501    0  0.00000000000E+00 -0.00000000000E+00 -0.89084666775E+01  0.90209300266E+01  0.14200000000E+01 0.  1.
       1023    2    1    2    0    0  0.00000000000E+00  0.00000000000E+00  0.20891946035E+01  0.20109886409E+02  0.20001069904E+02 0.  0.
        -11    1    3    3    0    0 -0.99668969523E+01 -0.81926180096E+00  0.10664943569E+01  0.10057218066E+02  0.51100000000E-03 0. -1.
         11    1    3    3    0    0  0.99668969523E+01  0.81926180096E+00  0.10227002466E+01  0.10052668343E+02  0.51100000000E-03 0.  1.
<mgrwt>
<rscale>  0 0.20001070E+02</rscale>
<asrwt>0</asrwt>
<pdfrwt beam="2">  1        4 0.13862071E-02 0.20001070E+02</pdfrwt>
<pdfrwt beam="1">  1       -4 0.17076216E-02 0.20001070E+02</pdfrwt>
<totfact> 0.13006105E+06</totfact>
</mgrwt>
</event>
<event>
 5    1  0.1154861E-006  0.2000062E+02  0.7818608E-02  0.1745316E+00
          4   -1    0    0  501    0  0.00000000000E+00  0.00000000000E+00  0.51339845146E+00  0.15099595922E+01  0.14200000000E+01 0. -1.
         -4   -1    0    0    0  501 -0.00000000000E+00 -0.00000000000E+00 -0.97847424709E+02  0.97857727963E+02  0.14200000000E+01 0.  1.
       1023    2    1    2    0    0  0.00000000000E+00  0.00000000000E+00 -0.97334026257E+02  0.99367687555E+02  0.20000616557E+02 0.  0.
        -11    1    3    3    0    0  0.59063848457E+01  0.80696507406E+01 -0.48473291399E+02  0.49494086762E+02  0.51100000000E-03 0.  1.
         11    1    3    3    0    0 -0.59063848457E+01 -0.80696507406E+01 -0.48860734858E+02  0.49873600794E+02  0.51100000000E-03 0. -1.
<mgrwt>
<rscale>  0 0.20000617E+02</rscale>
<asrwt>0</asrwt>
<pdfrwt beam="1">  1        4 0.15643556E-03 0.20000617E+02</pdfrwt>
<pdfrwt beam="2">  1       -4 0.15130894E-01 0.20000617E+02</pdfrwt>
<totfact> 0.98186884E+05</totfact>
</mgrwt>
</event>
<event>
 4    1  0.1154861E-006  0.2008868E+02  0.7818608E-02  0.1743570E+00
         -4   -1    0    0    0  501 -0.00000000000E+00  0.00000000000E+00  0.11759537829E+01  0.18437101994E+01  0.14200000000E+01 0.  1.
          4   -1    0    0  501    0  0.00000000000E+00 -0.00000000000E+00 -0.66144096909E+02  0.66159337632E+02  0.14200000000E+01 0. -1.
        -11    1    1    2    0    0 -0.25502959682E+01  0.97142630388E+01 -0.32032346988E+02  0.33569959334E+02  0.51100000000E-03 0. -1.
         11    1    1    2    0    0  0.25502959682E+01 -0.97142630388E+01 -0.32935796139E+02  0.34433088497E+02  0.51100000000E-03 0.  1.
<mgrwt>
<rscale>  0 0.20088676E+02</rscale>
<asrwt>0</asrwt>
<pdfrwt beam="2">  1        4 0.10228551E-01 0.20088676E+02</pdfrwt>
<pdfrwt beam="1">  1       -4 0.23345426E-03 0.20088676E+02</pdfrwt>
<totfact> 0.10726117E+06</totfact>
</mgrwt>
</event>
<event>
 5    1  0.1187981E-006  0.2000078E+02  0.7818608E-02  0.1745313E+00
         -4   -1    0    0    0  501 -0.00000000000E+00  0.00000000000E+00  0.14140795568E+02  0.14211913991E+02  0.14200000000E+01 0. -1.
          4   -1    0    0  501    0  0.00000000000E+00 -0.00000000000E+00 -0.69110656438E+01  0.70554396272E+01  0.14200000000E+01 0.  1.
       1023    2    1    2    0    0  0.00000000000E+00  0.00000000000E+00  0.72297299243E+01  0.21267353618E+02  0.20000783364E+02 0.  0.
        -11    1    3    3    0    0  0.95844513670E+01 -0.28541417294E+01  0.36156234791E+01  0.10633934663E+02  0.51100000000E-03 0. -1.
         11    1    3    3    0    0 -0.95844513670E+01  0.28541417294E+01  0.36141064451E+01  0.10633418955E+02  0.51100000000E-03 0.  1.
<mgrwt>
<rscale>  0 0.20000783E+02</rscale>
<asrwt>0</asrwt>
<pdfrwt beam="2">  1        4 0.10798172E-02 0.20000783E+02</pdfrwt>
<pdfrwt beam="1">  1       -4 0.21920833E-02 0.20000783E+02</pdfrwt>
<totfact> 0.12937972E+06</totfact>
</mgrwt>
</event>
<event>
 5    1  0.1154861E-006  0.2000029E+02  0.7818608E-02  0.1745322E+00
          4   -1    0    0  501    0  0.00000000000E+00  0.00000000000E+00  0.12012399956E+03  0.12013239226E+03  0.14200000000E+01 0.  1.
         -4   -1    0    0    0  501 -0.00000000000E+00 -0.00000000000E+00 -0.21232172179E+00  0.14357856781E+01  0.14200000000E+01 0. -1.
       1023    2    1    2    0    0  0.00000000000E+00  0.00000000000E+00  0.11991167783E+03  0.12156817793E+03  0.20000285133E+02 0.  0.
        -11    1    3    3    0    0 -0.26713355933E+01  0.96366840215E+01  0.60160914094E+02  0.60986369770E+02  0.51100000000E-03 0.  1.
         11    1    3    3    0    0  0.26713355933E+01 -0.96366840215E+01  0.59750763740E+02  0.60581808165E+02  0.51100000000E-03 0. -1.
<mgrwt>
<rscale>  0 0.20000285E+02</rscale>
<asrwt>0</asrwt>
<pdfrwt beam="1">  1        4 0.18575373E-01 0.20000285E+02</pdfrwt>
<pdfrwt beam="2">  1       -4 0.12742309E-03 0.20000285E+02</pdfrwt>
<totfact> 0.92262415E+05</totfact>
</mgrwt>
</event>
<event>
 5    1  0.1154861E-006  0.2000045E+02  0.7818608E-02  0.1745319E+00
         -4   -1    0    0    0  501 -0.00000000000E+00  0.00000000000E+00  0.77101808258E+02  0.77114883367E+02  0.14200000000E+01 0.  1.
          4   -1    0    0  501    0  0.00000000000E+00 -0.00000000000E+00 -0.89117204147E+00  0.16764807209E+01  0.14200000000E+01 0. -1.
       1023    2    1    2    0    0  0.00000000000E+00  0.00000000000E+00  0.76210636216E+02  0.78791364088E+02  0.20000449551E+02 0.  0.
        -11    1    3    3    0    0 -0.15471403971E+01 -0.98796206354E+01  0.38352847623E+02  0.39635103991E+02  0.51100000000E-03 0.  1.
         11    1    3    3    0    0  0.15471403971E+01  0.98796206354E+01  0.37857788593E+02  0.39156260097E+02  0.51100000000E-03 0. -1.
<mgrwt>
<rscale>  0 0.20000450E+02</rscale>
<asrwt>0</asrwt>
<pdfrwt beam="2">  1        4 0.19851757E-03 0.20000450E+02</pdfrwt>
<pdfrwt beam="1">  1       -4 0.11923228E-01 0.20000450E+02</pdfrwt>
<totfact> 0.10450375E+06</totfact>
</mgrwt>
</event>
<event>
 5    1  0.1154861E-006  0.2000216E+02  0.7818608E-02  0.1745285E+00
         -4   -1    0    0    0  501 -0.00000000000E+00  0.00000000000E+00  0.88719642891E+00  0.16743707784E+01  0.14200000000E+01 0.  1.
          4   -1    0    0  501    0  0.00000000000E+00 -0.00000000000E+00 -0.77298360573E+02  0.77311402440E+02  0.14200000000E+01 0. -1.
       1023    2    1    2    0    0  0.00000000000E+00  0.00000000000E+00 -0.76411164144E+02  0.78985773219E+02  0.20002159011E+02 0.  0.
        -11    1    3    3    0    0 -0.99446551852E+01 -0.10608570850E+01 -0.38195512763E+02  0.39483145518E+02  0.51100000000E-03 0. -1.
         11    1    3    3    0    0  0.99446551852E+01  0.10608570850E+01 -0.38215651381E+02  0.39502627700E+02  0.51100000000E-03 0.  1.
<mgrwt>
<rscale>  0 0.20002159E+02</rscale>
<asrwt>0</asrwt>
<pdfrwt beam="2">  1        4 0.11953607E-01 0.20002159E+02</pdfrwt>
<pdfrwt beam="1">  1       -4 0.19804691E-03 0.20002159E+02</pdfrwt>
<totfact> 0.10442180E+06</totfact>
</mgrwt>
</event>
<event>
 5    1  0.1154861E-006  0.2000171E+02  0.7818608E-02  0.1745294E+00
         -4   -1    0    0    0  501 -0.00000000000E+00  0.00000000000E+00  0.63405196394E+00  0.15551276131E+01  0.14200000000E+01 0.  1.
          4   -1    0    0  501    0  0.00000000000E+00 -0.00000000000E+00 -0.90445073230E+02  0.90456219640E+02  0.14200000000E+01 0. -1.
       1023    2    1    2    0    0  0.00000000000E+00  0.00000000000E+00 -0.89811021266E+02  0.92011347253E+02  0.20001711989E+02 0.  0.
        -11    1    3    3    0    0  0.40573555049E+01 -0.91400096857E+01 -0.45472837480E+02  0.46559433626E+02  0.51100000000E-03 0.  1.
         11    1    3    3    0    0 -0.40573555049E+01  0.91400096857E+01 -0.44338183785E+02  0.45451913627E+02  0.51100000000E-03 0. -1.
<mgrwt>
<rscale>  0 0.20001712E+02</rscale>
<asrwt>0</asrwt>
<pdfrwt beam="2">  1        4 0.13986330E-01 0.20001712E+02</pdfrwt>
<pdfrwt beam="1">  1       -4 0.16925592E-03 0.20001712E+02</pdfrwt>
<totfact> 0.10033152E+06</totfact>
</mgrwt>
</event>
<event>
 5    1  0.1154861E-006  0.2000032E+02  0.7818608E-02  0.1745322E+00
          4   -1    0    0  501    0  0.00000000000E+00  0.00000000000E+00  0.46306228321E+02  0.46327995654E+02  0.14200000000E+01 0.  1.
         -4   -1    0    0    0  501 -0.00000000000E+00 -0.00000000000E+00 -0.19014133792E+01  0.23731356554E+01  0.14200000000E+01 0. -1.
       1023    2    1    2    0    0  0.00000000000E+00  0.00000000000E+00  0.44404814942E+02  0.48701131310E+02  0.20000315018E+02 0.  0.
        -11    1    3    3    0    0 -0.73355710287E+01  0.67963553564E+01  0.22090781254E+02  0.24248786879E+02  0.51100000000E-03 0. -1.
         11    1    3    3    0    0  0.73355710287E+01 -0.67963553564E+01  0.22314033688E+02  0.24452344430E+02  0.51100000000E-03 0.  1.
<mgrwt>
<rscale>  0 0.20000315E+02</rscale>
<asrwt>0</asrwt>
<pdfrwt beam="1">  1        4 0.71619962E-02 0.20000315E+02</pdfrwt>
<pdfrwt beam="2">  1       -4 0.33048586E-03 0.20000315E+02</pdfrwt>
<totfact> 0.11574823E+06</totfact>
</mgrwt>
</event>
<event>
 5    1  0.1154861E-006  0.2000079E+02  0.7818608E-02  0.1745312E+00
         -4   -1    0    0    0  501 -0.00000000000E+00  0.00000000000E+00  0.77588481904E+02  0.77601475013E+02  0.14200000000E+01 0.  1.
          4   -1    0    0  501    0  0.00000000000E+00 -0.00000000000E+00 -0.88069971765E+00  0.16709374592E+01  0.14200000000E+01 0. -1.
       1023    2    1    2    0    0  0.00000000000E+00  0.00000000000E+00  0.76707782187E+02  0.79272412472E+02  0.20000788264E+02 0.  0.
        -11    1    3    3    0    0  0.18646039618E+01 -0.98250255854E+01  0.38364263217E+02  0.39646242799E+02  0.51100000000E-03 0.  1.
         11    1    3    3    0    0 -0.18646039618E+01  0.98250255854E+01  0.38343518970E+02  0.39626169673E+02  0.51100000000E-03 0. -1.
<mgrwt>
<rscale>  0 0.20000788E+02</rscale>
<asrwt>0</asrwt>
<pdfrwt beam="2">  1        4 0.19727920E-03 0.20000788E+02</pdfrwt>
<pdfrwt beam="1">  1       -4 0.11998480E-01 0.20000788E+02</pdfrwt>
<totfact> 0.10434183E+06</totfact>
</mgrwt>
</event>
<event>
 5    1  0.1232014E-006  0.2000102E+02  0.7818608E-02  0.1745308E+00
          4   -1    0    0  501    0  0.00000000000E+00  0.00000000000E+00  0.26552348863E+02  0.26590292028E+02  0.14200000000E+01 0. -1.
         -4   -1    0    0    0  501 -0.00000000000E+00 -0.00000000000E+00 -0.35905020423E+01  0.38611015158E+01  0.14200000000E+01 0.  1.
       1023    2    1    2    0    0  0.00000000000E+00  0.00000000000E+00  0.22961846820E+02  0.30451393544E+02  0.20001023958E+02 0.  0.
        -11    1    3    3    0    0  0.94596329853E+01  0.32427714011E+01  0.11633301935E+02  0.15340597666E+02  0.51100000000E-03 0. -1.
         11    1    3    3    0    0 -0.94596329853E+01 -0.32427714011E+01  0.11328544886E+02  0.15110795878E+02  0.51100000000E-03 0.  1.
<mgrwt>
<rscale>  0 0.20001024E+02</rscale>
<asrwt>0</asrwt>
<pdfrwt beam="1">  1        4 0.41087109E-02 0.20001024E+02</pdfrwt>
<pdfrwt beam="2">  1       -4 0.57611897E-03 0.20001024E+02</pdfrwt>
<totfact> 0.12430937E+06</totfact>
</mgrwt>
</event>
<event>
 5    1  0.1154861E-006  0.2000120E+02  0.7818608E-02  0.1745304E+00
          4   -1    0    0  501    0  0.00000000000E+00  0.00000000000E+00  0.10505991015E+03  0.10506950614E+03  0.14200000000E+01 0.  1.
         -4   -1    0    0    0  501 -0.00000000000E+00 -0.00000000000E+00 -0.40731385206E+00  0.14772625271E+01  0.14200000000E+01 0. -1.
       1023    2    1    2    0    0  0.00000000000E+00  0.00000000000E+00  0.10465259630E+03  0.10654676867E+03  0.20001200008E+02 0.  0.
        -11    1    3    3    0    0  0.40464956060E+01 -0.91453063271E+01  0.52514310210E+02  0.53458053945E+02  0.51100000000E-03 0.  1.
         11    1    3    3    0    0 -0.40464956060E+01  0.91453063271E+01  0.52138286091E+02  0.53088714727E+02  0.51100000000E-03 0. -1.
<mgrwt>
<rscale>  0 0.20001200E+02</rscale>
<asrwt>0</asrwt>
<pdfrwt beam="1">  1        4 0.16246098E-01 0.20001200E+02</pdfrwt>
<pdfrwt beam="2">  1       -4 0.14570563E-03 0.20001200E+02</pdfrwt>
<totfact> 0.96175117E+05</totfact>
</mgrwt>
</event>
<event>
 5    1  0.1170835E-006  0.2000061E+02  0.7818608E-02  0.1745316E+00
         -4   -1    0    0    0  501 -0.00000000000E+00  0.00000000000E+00  0.53731528925E+01  0.55576228737E+01  0.14200000000E+01 0.  1.
          4   -1    0    0  501    0  0.00000000000E+00 -0.00000000000E+00 -0.18085312232E+02  0.18140973472E+02  0.14200000000E+01 0. -1.
       1023    2    1    2    0    0  0.00000000000E+00  0.00000000000E+00 -0.12712159339E+02  0.23698596346E+02  0.20000611833E+02 0.  0.
        -11    1    3    3    0    0 -0.94047748083E+01  0.33994547707E+01 -0.63632119198E+01  0.11853123982E+02  0.51100000000E-03 0.  1.
         11    1    3    3    0    0  0.94047748083E+01 -0.33994547707E+01 -0.63489474196E+01  0.11845472364E+02  0.51100000000E-03 0. -1.
<mgrwt>
<rscale>  0 0.20000612E+02</rscale>
<asrwt>0</asrwt>
<pdfrwt beam="2">  1        4 0.28008273E-02 0.20000612E+02</pdfrwt>
<pdfrwt beam="1">  1       -4 0.84511055E-03 0.20000612E+02</pdfrwt>
<totfact> 0.12798001E+06</totfact>
</mgrwt>
</event>
<event>
 5    1  0.1154861E-006  0.2000023E+02  0.7818608E-02  0.1745324E+00
          4   -1    0    0  501    0  0.00000000000E+00  0.00000000000E+00  0.39547024069E+01  0.42019127939E+01  0.14200000000E+01 0. -1.
         -4   -1    0    0    0  501 -0.00000000000E+00 -0.00000000000E+00 -0.24251925939E+02  0.24293462326E+02  0.14200000000E+01 0.  1.
       1023    2    1    2    0    0  0.00000000000E+00  0.00000000000E+00 -0.20297223532E+02  0.28495375119E+02  0.20000228001E+02 0.  0.
        -11    1    3    3    0    0  0.19474177099E+01 -0.98085941153E+01 -0.10096740173E+02  0.14210739482E+02  0.51100000000E-03 0. -1.
         11    1    3    3    0    0 -0.19474177099E+01  0.98085941153E+01 -0.10200483359E+02  0.14284635637E+02  0.51100000000E-03 0.  1.
<mgrwt>
<rscale>  0 0.20000228E+02</rscale>
<asrwt>0</asrwt>
<pdfrwt beam="1">  1        4 0.63062706E-03 0.20000228E+02</pdfrwt>
<pdfrwt beam="2">  1       -4 0.37532767E-02 0.20000228E+02</pdfrwt>
<totfact> 0.12534796E+06</totfact>
</mgrwt>
</event>
<event>
 5    1  0.1162420E-006  0.2000198E+02  0.7818608E-02  0.1745289E+00
         -4   -1    0    0    0  501 -0.00000000000E+00  0.00000000000E+00  0.27187857064E+02  0.27224914541E+02  0.14200000000E+01 0. -1.
          4   -1    0    0  501    0  0.00000000000E+00 -0.00000000000E+00 -0.35006625867E+01  0.37777028133E+01  0.14200000000E+01 0.  1.
       1023    2    1    2    0    0  0.00000000000E+00  0.00000000000E+00  0.23687194478E+02  0.31002617354E+02  0.20001977417E+02 0.  0.
        -11    1    3    3    0    0 -0.36833516278E+01  0.92978212776E+01  0.11931484657E+02  0.15568458052E+02  0.51100000000E-03 0. -1.
         11    1    3    3    0    0  0.36833516278E+01 -0.92978212776E+01  0.11755709820E+02  0.15434159302E+02  0.51100000000E-03 0.  1.
<mgrwt>
<rscale>  0 0.20001977E+02</rscale>
<asrwt>0</asrwt>
<pdfrwt beam="2">  1        4 0.56272485E-03 0.20001977E+02</pdfrwt>
<pdfrwt beam="1">  1       -4 0.42069085E-02 0.20001977E+02</pdfrwt>
<totfact> 0.12401210E+06</totfact>
</mgrwt>
</event>
<event>
 5    1  0.1162939E-006  0.2000068E+02  0.7818608E-02  0.1745315E+00
          4   -1    0    0  501    0  0.00000000000E+00  0.00000000000E+00  0.12019274265E+02  0.12102865523E+02  0.14200000000E+01 0.  1.
         -4   -1    0    0    0  501 -0.00000000000E+00 -0.00000000000E+00 -0.81464840996E+01  0.82693169721E+01  0.14200000000E+01 0. -1.
       1023    2    1    2    0    0  0.00000000000E+00  0.00000000000E+00  0.38727901655E+01  0.20372182495E+02  0.20000682887E+02 0.  0.
        -11    1    3    3    0    0  0.65310297065E+01 -0.75729453497E+01  0.18808064239E+01  0.10175523739E+02  0.51100000000E-03 0.  1.
         11    1    3    3    0    0 -0.65310297065E+01  0.75729453497E+01  0.19919837417E+01  0.10196658756E+02  0.51100000000E-03 0. -1.
<mgrwt>
<rscale>  0 0.20000683E+02</rscale>
<asrwt>0</asrwt>
<pdfrwt beam="1">  1        4 0.18649979E-02 0.20000683E+02</pdfrwt>
<pdfrwt beam="2">  1       -4 0.12691840E-02 0.20000683E+02</pdfrwt>
<totfact> 0.12990994E+06</totfact>
</mgrwt>
</event>
<event>
 5    1  0.1154861E-006  0.2000933E+02  0.7818608E-02  0.1745143E+00
         -4   -1    0    0    0  501 -0.00000000000E+00  0.00000000000E+00  0.12997889716E+01  0.19250587967E+01  0.14200000000E+01 0. -1.
          4   -1    0    0  501    0  0.00000000000E+00 -0.00000000000E+00 -0.61441248197E+02  0.61457655178E+02  0.14200000000E+01 0. -1.
       1023    2    1    2    0    0  0.00000000000E+00  0.00000000000E+00 -0.60141459225E+02  0.63382713975E+02  0.20009330650E+02 0.  0.
        -11    1    3    3    0    0 -0.53766848021E+01  0.84359662089E+01 -0.30508080593E+02  0.32106342785E+02  0.51100000000E-03 0. -1.
         11    1    3    3    0    0  0.53766848021E+01 -0.84359662089E+01 -0.29633378632E+02  0.31276371189E+02  0.51100000000E-03 0.  1.
<mgrwt>
<rscale>  0 0.20009331E+02</rscale>
<asrwt>0</asrwt>
<pdfrwt beam="2">  1        4 0.95018577E-02 0.20009331E+02</pdfrwt>
<pdfrwt beam="1">  1       -4 0.24932734E-03 0.20009331E+02</pdfrwt>
<totfact> 0.10980564E+06</totfact>
</mgrwt>
</event>
<event>
 4    1  0.1154861E-006  0.2007900E+02  0.7818608E-02  0.1743762E+00
          4   -1    0    0  501    0  0.00000000000E+00  0.00000000000E+00  0.22971335562E+01  0.27005967072E+01  0.14200000000E+01 0. -1.
         -4   -1    0    0    0  501 -0.00000000000E+00 -0.00000000000E+00 -0.39917816461E+02  0.39943065368E+02  0.14200000000E+01 0.  1.
        -11    1    1    2    0    0  0.67449503524E+01  0.74174111380E+01 -0.19932520609E+02  0.22311829179E+02  0.51100000000E-03 0.  1.
         11    1    1    2    0    0 -0.67449503524E+01 -0.74174111380E+01 -0.17688162296E+02  0.20331832896E+02  0.51100000000E-03 0. -1.
<mgrwt>
<rscale>  0 0.20078997E+02</rscale>
<asrwt>0</asrwt>
<pdfrwt beam="1">  1        4 0.38638304E-03 0.20078997E+02</pdfrwt>
<pdfrwt beam="2">  1       -4 0.61741799E-02 0.20078997E+02</pdfrwt>
<totfact> 0.11747215E+06</totfact>
</mgrwt>
</event>
<event>
 5    1  0.1157863E-006  0.2000076E+02  0.7818608E-02  0.1745313E+00
          4   -1    0    0  501    0  0.00000000000E+00  0.00000000000E+00  0.25306080492E+01  0.29017886034E+01  0.14200000000E+01 0.  1.
         -4   -1    0    0    0  501 -0.00000000000E+00 -0.00000000000E+00 -0.36433018002E+02  0.36460680201E+02  0.14200000000E+01 0. -1.
       1023    2    1    2    0    0  0.00000000000E+00  0.00000000000E+00 -0.33902409953E+02  0.39362468804E+02  0.20000763730E+02 0.  0.
        -11    1    3    3    0    0 -0.17298324294E+00 -0.99985372034E+01 -0.17115484256E+02  0.19822726124E+02  0.51100000000E-03 0. -1.
         11    1    3    3    0    0  0.17298324294E+00  0.99985372034E+01 -0.16786925697E+02  0.19539742680E+02  0.51100000000E-03 0.  1.
<mgrwt>
<rscale>  0 0.20000764E+02</rscale>
<asrwt>0</asrwt>
<pdfrwt beam="1">  1        4 0.42000455E-03 0.20000764E+02</pdfrwt>
<pdfrwt beam="2">  1       -4 0.56357596E-02 0.20000764E+02</pdfrwt>
<totfact> 0.11991460E+06</totfact>
</mgrwt>
</event>
<event>
 5    1  0.1167081E-006  0.2000116E+02  0.7818608E-02  0.1745305E+00
         -4   -1    0    0    0  501 -0.00000000000E+00  0.00000000000E+00  0.19874427674E+01  0.24426069585E+01  0.14200000000E+01 0. -1.
          4   -1    0    0  501    0  0.00000000000E+00 -0.00000000000E+00 -0.44683844497E+02  0.44706401768E+02  0.14200000000E+01 0.  1.
       1023    2    1    2    0    0  0.00000000000E+00  0.00000000000E+00 -0.42696401729E+02  0.47149008726E+02  0.20001157547E+02 0.  0.
        -11    1    3    3    0    0 -0.18680193072E+01 -0.98245572565E+01 -0.21377466177E+02  0.23601005950E+02  0.51100000000E-03 0.  1.
         11    1    3    3    0    0  0.18680193072E+01  0.98245572565E+01 -0.21318935552E+02  0.23548002776E+02  0.51100000000E-03 0. -1.
<mgrwt>
<rscale>  0 0.20001158E+02</rscale>
<asrwt>0</asrwt>
<pdfrwt beam="2">  1        4 0.69111847E-02 0.20001158E+02</pdfrwt>
<pdfrwt beam="1">  1       -4 0.34250826E-03 0.20001158E+02</pdfrwt>
<totfact> 0.11640458E+06</totfact>
</mgrwt>
</event>
<event>
 5    1  0.1154861E-006  0.2000516E+02  0.7818608E-02  0.1745225E+00
          4   -1    0    0  501    0  0.00000000000E+00  0.00000000000E+00  0.12511300493E+01  0.18925449533E+01  0.14200000000E+01 0. -1.
         -4   -1    0    0    0  501 -0.00000000000E+00 -0.00000000000E+00 -0.63001602713E+02  0.63017603449E+02  0.14200000000E+01 0.  1.
       1023    2    1    2    0    0  0.00000000000E+00  0.00000000000E+00 -0.61750472664E+02  0.64910148402E+02  0.20005161618E+02 0.  0.
        -11    1    3    3    0    0  0.58095574580E+01  0.81404558724E+01 -0.30280098817E+02  0.31888906602E+02  0.51100000000E-03 0.  1.
         11    1    3    3    0    0 -0.58095574580E+01 -0.81404558724E+01 -0.31470373847E+02  0.33021241800E+02  0.51100000000E-03 0. -1.
<mgrwt>
<rscale>  0 0.20005162E+02</rscale>
<asrwt>0</asrwt>
<pdfrwt beam="1">  1        4 0.24305203E-03 0.20005162E+02</pdfrwt>
<pdfrwt beam="2">  1       -4 0.97431227E-02 0.20005162E+02</pdfrwt>
<totfact> 0.10928605E+06</totfact>
</mgrwt>
</event>
<event>
 5    1  0.1154861E-006  0.2000037E+02  0.7818608E-02  0.1745321E+00
         -4   -1    0    0    0  501 -0.00000000000E+00  0.00000000000E+00  0.24094137235E+01  0.27967256732E+01  0.14200000000E+01 0. -1.
          4   -1    0    0  501    0  0.00000000000E+00 -0.00000000000E+00 -0.38016062184E+02  0.38042573309E+02  0.14200000000E+01 0.  1.
       1023    2    1    2    0    0  0.00000000000E+00  0.00000000000E+00 -0.35606648461E+02  0.40839298983E+02  0.20000373166E+02 0.  0.
        -11    1    3    3    0    0  0.28785109749E+01 -0.95768529391E+01 -0.17716842340E+02  0.20344248337E+02  0.51100000000E-03 0.  1.
         11    1    3    3    0    0 -0.28785109749E+01  0.95768529391E+01 -0.17889806121E+02  0.20495050645E+02  0.51100000000E-03 0. -1.
<mgrwt>
<rscale>  0 0.20000373E+02</rscale>
<asrwt>0</asrwt>
<pdfrwt beam="2">  1        4 0.58804571E-02 0.20000373E+02</pdfrwt>
<pdfrwt beam="1">  1       -4 0.40251161E-03 0.20000373E+02</pdfrwt>
<totfact> 0.11923273E+06</totfact>
</mgrwt>
</event>
<event>
 5    1  0.1167092E-006  0.2000103E+02  0.7818608E-02  0.1745308E+00
         -4   -1    0    0    0  501 -0.00000000000E+00  0.00000000000E+00  0.29038212243E+01  0.32324259779E+01  0.14200000000E+01 0.  1.
          4   -1    0    0  501    0  0.00000000000E+00 -0.00000000000E+00 -0.32251516021E+02  0.32282761431E+02  0.14200000000E+01 0. -1.
       1023    2    1    2    0    0  0.00000000000E+00  0.00000000000E+00 -0.29347694796E+02  0.35515187409E+02  0.20001033644E+02 0.  0.
        -11    1    3    3    0    0  0.74847346829E+01 -0.66323905005E+01 -0.14712727099E+02  0.17789721639E+02  0.51100000000E-03 0. -1.
         11    1    3    3    0    0 -0.74847346829E+01  0.66323905005E+01 -0.14634967697E+02  0.17725465770E+02  0.51100000000E-03 0.  1.
<mgrwt>
<rscale>  0 0.20001034E+02</rscale>
<asrwt>0</asrwt>
<pdfrwt beam="2">  1        4 0.49894522E-02 0.20001034E+02</pdfrwt>
<pdfrwt beam="1">  1       -4 0.47442253E-03 0.20001034E+02</pdfrwt>
<totfact> 0.12175408E+06</totfact>
</mgrwt>
</event>
<event>
 5    1  0.1154861E-006  0.2000316E+02  0.7818608E-02  0.1745265E+00
          4   -1    0    0  501    0  0.00000000000E+00  0.00000000000E+00  0.54034793775E+01  0.55869481278E+01  0.14200000000E+01 0.  1.
         -4   -1    0    0    0  501 -0.00000000000E+00 -0.00000000000E+00 -0.17991493559E+02  0.18047444153E+02  0.14200000000E+01 0. -1.
       1023    2    1    2    0    0  0.00000000000E+00  0.00000000000E+00 -0.12588014181E+02  0.23634392281E+02  0.20003159687E+02 0.  0.
        -11    1    3    3    0    0 -0.94327489403E+01  0.33229686861E+01 -0.64272934756E+01  0.11888186369E+02  0.51100000000E-03 0. -1.
         11    1    3    3    0    0  0.94327489403E+01 -0.33229686861E+01 -0.61607207054E+01  0.11746205912E+02  0.51100000000E-03 0.  1.
<mgrwt>
<rscale>  0 0.20003160E+02</rscale>
<asrwt>0</asrwt>
<pdfrwt beam="1">  1        4 0.84972140E-03 0.20003160E+02</pdfrwt>
<pdfrwt beam="2">  1       -4 0.27863389E-02 0.20003160E+02</pdfrwt>
<totfact> 0.12798317E+06</totfact>
</mgrwt>
</event>
<event>
 5    1  0.1162920E-006  0.2000145E+02  0.7818608E-02  0.1745299E+00
          4   -1    0    0  501    0  0.00000000000E+00  0.00000000000E+00  0.74823884390E+01  0.76159396500E+01  0.14200000000E+01 0. -1.
         -4   -1    0    0    0  501 -0.00000000000E+00 -0.00000000000E+00 -0.13076091444E+02  0.13152968009E+02  0.14200000000E+01 0.  1.
       1023    2    1    2    0    0  0.00000000000E+00  0.00000000000E+00 -0.55937030050E+01  0.20768907659E+02  0.20001450249E+02 0.  0.
        -11    1    3    3    0    0 -0.89384084191E+01  0.44854551478E+01 -0.28041792277E+01  0.10386427410E+02  0.51100000000E-03 0. -1.
         11    1    3    3    0    0  0.89384084191E+01 -0.44854551478E+01 -0.27895237773E+01  0.10382480249E+02  0.51100000000E-03 0.  1.
<mgrwt>
<rscale>  0 0.20001450E+02</rscale>
<asrwt>0</asrwt>
<pdfrwt beam="1">  1        4 0.11673234E-02 0.20001450E+02</pdfrwt>
<pdfrwt beam="2">  1       -4 0.20278931E-02 0.20001450E+02</pdfrwt>
<totfact> 0.12966501E+06</totfact>
</mgrwt>
</event>
<event>
 5    1  0.1154861E-006  0.2000256E+02  0.7818608E-02  0.1745277E+00
          4   -1    0    0  501    0  0.00000000000E+00  0.00000000000E+00  0.13429166351E+02  0.13504033060E+02  0.14200000000E+01 0.  1.
         -4   -1    0    0    0  501 -0.00000000000E+00 -0.00000000000E+00 -0.72840595607E+01  0.74211807473E+01  0.14200000000E+01 0. -1.
       1023    2    1    2    0    0  0.00000000000E+00  0.00000000000E+00  0.61451067907E+01  0.20925213808E+02  0.20002555722E+02 0.  0.
        -11    1    3    3    0    0 -0.97797081308E+01  0.20932258485E+01  0.31098785672E+01  0.10473568186E+02  0.51100000000E-03 0. -1.
         11    1    3    3    0    0  0.97797081308E+01 -0.20932258485E+01  0.30352282234E+01  0.10451645622E+02  0.51100000000E-03 0.  1.
<mgrwt>
<rscale>  0 0.20002556E+02</rscale>
<asrwt>0</asrwt>
<pdfrwt beam="1">  1        4 0.20823324E-02 0.20002556E+02</pdfrwt>
<pdfrwt beam="2">  1       -4 0.11369313E-02 0.20002556E+02</pdfrwt>
<totfact> 0.12955789E+06</totfact>
</mgrwt>
</event>
<event>
 5    1  0.1154861E-006  0.2000110E+02  0.7818608E-02  0.1745306E+00
         -4   -1    0    0    0  501 -0.00000000000E+00  0.00000000000E+00  0.27835779459E+00  0.14470255913E+01  0.14200000000E+01 0.  1.
          4   -1    0    0  501    0  0.00000000000E+00 -0.00000000000E+00 -0.11475293620E+03  0.11476172170E+03  0.14200000000E+01 0. -1.
       1023    2    1    2    0    0  0.00000000000E+00  0.00000000000E+00 -0.11447457841E+03  0.11620874729E+03  0.20001096092E+02 0.  0.
        -11    1    3    3    0    0 -0.20793960680E+01  0.97816320774E+01 -0.56760050450E+02  0.57634256666E+02  0.51100000000E-03 0.  1.
         11    1    3    3    0    0  0.20793960680E+01 -0.97816320774E+01 -0.57714527959E+02  0.58574490624E+02  0.51100000000E-03 0. -1.
<mgrwt>
<rscale>  0 0.20001096E+02</rscale>
<asrwt>0</asrwt>
<pdfrwt beam="2">  1        4 0.17744859E-01 0.20001096E+02</pdfrwt>
<pdfrwt beam="1">  1       -4 0.13339770E-03 0.20001096E+02</pdfrwt>
<totfact> 0.93613376E+05</totfact>
</mgrwt>
</event>
<event>
 5    1  0.1186968E-006  0.2000086E+02  0.7818608E-02  0.1745311E+00
         -4   -1    0    0    0  501 -0.00000000000E+00  0.00000000000E+00  0.10385757751E+02  0.10482383510E+02  0.14200000000E+01 0. -1.
          4   -1    0    0  501    0  0.00000000000E+00 -0.00000000000E+00 -0.94348119054E+01  0.95410730891E+01  0.14200000000E+01 0.  1.
       1023    2    1    2    0    0  0.00000000000E+00  0.00000000000E+00  0.95094584529E+00  0.20023456599E+02  0.20000862886E+02 0.  0.
        -11    1    3    3    0    0  0.77099163068E+01 -0.63686510302E+01  0.39726052036E+00  0.10008013868E+02  0.51100000000E-03 0. -1.
         11    1    3    3    0    0 -0.77099163068E+01  0.63686510302E+01  0.55368532493E+00  0.10015442731E+02  0.51100000000E-03 0.  1.
<mgrwt>
<rscale>  0 0.20000863E+02</rscale>
<asrwt>0</asrwt>
<pdfrwt beam="2">  1        4 0.14671162E-02 0.20000863E+02</pdfrwt>
<pdfrwt beam="1">  1       -4 0.16134156E-02 0.20000863E+02</pdfrwt>
<totfact> 0.13011506E+06</totfact>
</mgrwt>
</event>
<event>
 5    1  0.1154861E-006  0.2000260E+02  0.7818608E-02  0.1745276E+00
          4   -1    0    0  501    0  0.00000000000E+00  0.00000000000E+00  0.96558843740E+02  0.96569284477E+02  0.14200000000E+01 0. -1.
         -4   -1    0    0    0  501 -0.00000000000E+00 -0.00000000000E+00 -0.53376262925E+00  0.15170044642E+01  0.14200000000E+01 0.  1.
       1023    2    1    2    0    0  0.00000000000E+00  0.00000000000E+00  0.96025081110E+02  0.98086288941E+02  0.20002596730E+02 0.  0.
        -11    1    3    3    0    0 -0.36630264560E+01 -0.93059951830E+01  0.48412710669E+02  0.49434905318E+02  0.51100000000E-03 0. -1.
         11    1    3    3    0    0  0.36630264560E+01  0.93059951830E+01  0.47612370441E+02  0.48651383623E+02  0.51100000000E-03 0.  1.
<mgrwt>
<rscale>  0 0.20002597E+02</rscale>
<asrwt>0</asrwt>
<pdfrwt beam="1">  1        4 0.14931641E-01 0.20002597E+02</pdfrwt>
<pdfrwt beam="2">  1       -4 0.15855448E-03 0.20002597E+02</pdfrwt>
<totfact> 0.98535321E+05</totfact>
</mgrwt>
</event>
<event>
 5    1  0.1155999E-006  0.2000082E+02  0.7818608E-02  0.1745312E+00
         -4   -1    0    0    0  501 -0.00000000000E+00  0.00000000000E+00  0.41645997811E+02  0.41670199587E+02  0.14200000000E+01 0. -1.
          4   -1    0    0  501    0  0.00000000000E+00 -0.00000000000E+00 -0.21643023674E+01  0.25885526337E+01  0.14200000000E+01 0.  1.
       1023    2    1    2    0    0  0.00000000000E+00  0.00000000000E+00  0.39481695443E+02  0.44258752221E+02  0.20000821810E+02 0.  0.
        -11    1    3    3    0    0 -0.50742930905E+01 -0.86173800487E+01  0.19689964816E+02  0.22083985238E+02  0.51100000000E-03 0.  1.
         11    1    3    3    0    0  0.50742930905E+01  0.86173800487E+01  0.19791730627E+02  0.22174766983E+02  0.51100000000E-03 0. -1.
<mgrwt>
<rscale>  0 0.20000822E+02</rscale>
<asrwt>0</asrwt>
<pdfrwt beam="2">  1        4 0.36746590E-03 0.20000822E+02</pdfrwt>
<pdfrwt beam="1">  1       -4 0.64415730E-02 0.20000822E+02</pdfrwt>
<totfact> 0.11767733E+06</totfact>
</mgrwt>
</event>
<event>
 5    1  0.1210875E-006  0.2000103E+02  0.7818608E-02  0.1745308E+00
          4   -1    0    0  501    0  0.00000000000E+00  0.00000000000E+00  0.63280550558E+01  0.64854206332E+01  0.14200000000E+01 0. -1.
         -4   -1    0    0    0  501 -0.00000000000E+00 -0.00000000000E+00 -0.15419793668E+02  0.15485039127E+02  0.14200000000E+01 0.  1.
       1023    2    1    2    0    0  0.00000000000E+00  0.00000000000E+00 -0.90917386119E+01  0.21970459760E+02  0.20001034750E+02 0.  0.
        -11    1    3    3    0    0 -0.27061141875E+01 -0.96273300517E+01 -0.45925972199E+01  0.11004566661E+02  0.51100000000E-03 0. -1.
         11    1    3    3    0    0  0.27061141875E+01  0.96273300517E+01 -0.44991413920E+01  0.10965893098E+02  0.51100000000E-03 0.  1.
<mgrwt>
<rscale>  0 0.20001035E+02</rscale>
<asrwt>0</asrwt>
<pdfrwt beam="1">  1        4 0.99067086E-03 0.20001035E+02</pdfrwt>
<pdfrwt beam="2">  1       -4 0.23893999E-02 0.20001035E+02</pdfrwt>
<totfact> 0.12896578E+06</totfact>
</mgrwt>
</event>
<event>
 5    1  0.1154861E-006  0.2000766E+02  0.7818608E-02  0.1745176E+00
          4   -1    0    0  501    0  0.00000000000E+00  0.00000000000E+00  0.75896256983E+02  0.75909539743E+02  0.14200000000E+01 0.  1.
         -4   -1    0    0    0  501 -0.00000000000E+00 -0.00000000000E+00 -0.91893172025E+00  0.16914004572E+01  0.14200000000E+01 0. -1.
       1023    2    1    2    0    0  0.00000000000E+00  0.00000000000E+00  0.74977325263E+02  0.77600940200E+02  0.20007663942E+02 0.  0.
        -11    1    3    3    0    0  0.98846083139E+01  0.15313744228E+01  0.36862485800E+02  0.38195463719E+02  0.51100000000E-03 0. -1.
         11    1    3    3    0    0 -0.98846083139E+01 -0.15313744228E+01  0.38114839463E+02  0.39405476481E+02  0.51100000000E-03 0.  1.
<mgrwt>
<rscale>  0 0.20007664E+02</rscale>
<asrwt>0</asrwt>
<pdfrwt beam="1">  1        4 0.11736796E-01 0.20007664E+02</pdfrwt>
<pdfrwt beam="2">  1       -4 0.20181642E-03 0.20007664E+02</pdfrwt>
<totfact> 0.10482236E+06</totfact>
</mgrwt>
</event>
<event>
 5    1  0.1154861E-006  0.2000069E+02  0.7818608E-02  0.1745314E+00
         -4   -1    0    0    0  501 -0.00000000000E+00  0.00000000000E+00  0.81093004463E+01  0.82326881229E+01  0.14200000000E+01 0.  1.
          4   -1    0    0  501    0  0.00000000000E+00 -0.00000000000E+00 -0.12073945387E+02  0.12157160738E+02  0.14200000000E+01 0. -1.
       1023    2    1    2    0    0  0.00000000000E+00  0.00000000000E+00 -0.39646449408E+01  0.20389848861E+02  0.20000688165E+02 0.  0.
        -11    1    3    3    0    0 -0.74402710633E+01 -0.66816192565E+01 -0.20559222161E+01  0.10209235319E+02  0.51100000000E-03 0. -1.
         11    1    3    3    0    0  0.74402710633E+01  0.66816192565E+01 -0.19087227247E+01  0.10180613542E+02  0.51100000000E-03 0.  1.
<mgrwt>
<rscale>  0 0.20000688E+02</rscale>
<asrwt>0</asrwt>
<pdfrwt beam="2">  1        4 0.18734226E-02 0.20000688E+02</pdfrwt>
<pdfrwt beam="1">  1       -4 0.12634772E-02 0.20000688E+02</pdfrwt>
<totfact> 0.12989939E+06</totfact>
</mgrwt>
</event>
<event>
 4    1  0.1154861E-006  0.2002915E+02  0.7818608E-02  0.1744749E+00
          4   -1    0    0  501    0  0.00000000000E+00  0.00000000000E+00  0.91382569499E+01  0.92479262585E+01  0.14200000000E+01 0.  1.
         -4   -1    0    0    0  501 -0.00000000000E+00 -0.00000000000E+00 -0.10752844540E+02  0.10846200519E+02  0.14200000000E+01 0. -1.
        -11    1    1    2    0    0 -0.87365978457E+01  0.48653734170E+01 -0.26539460489E+00  0.10003521128E+02  0.51100000000E-03 0. -1.
         11    1    1    2    0    0  0.87365978457E+01 -0.48653734170E+01 -0.13491929856E+01  0.10090605650E+02  0.51100000000E-03 0.  1.
<mgrwt>
<rscale>  0 0.20029155E+02</rscale>
<asrwt>0</asrwt>
<pdfrwt beam="1">  1        4 0.14215030E-02 0.20029155E+02</pdfrwt>
<pdfrwt beam="2">  1       -4 0.16699011E-02 0.20029155E+02</pdfrwt>
<totfact> 0.12969818E+06</totfact>
</mgrwt>
</event>
<event>
 4    1  0.1348042E-006  0.2011764E+02  0.7818608E-02  0.1742999E+00
         -4   -1    0    0    0  501 -0.00000000000E+00  0.00000000000E+00  0.22174356395E+02  0.22219776811E+02  0.14200000000E+01 0.  1.
          4   -1    0    0  501    0  0.00000000000E+00 -0.00000000000E+00 -0.44010114848E+01  0.46244245144E+01  0.14200000000E+01 0. -1.
        -11    1    1    2    0    0 -0.96675682283E+01  0.25847637537E+01  0.10245468889E+02  0.14321749618E+02  0.51100000000E-03 0.  1.
         11    1    1    2    0    0  0.96675682283E+01 -0.25847637537E+01  0.75278760217E+01  0.12522451708E+02  0.51100000000E-03 0. -1.
<mgrwt>
<rscale>  0 0.20117638E+02</rscale>
<asrwt>0</asrwt>
<pdfrwt beam="2">  1        4 0.69775820E-03 0.20117638E+02</pdfrwt>
<pdfrwt beam="1">  1       -4 0.34321189E-02 0.20117638E+02</pdfrwt>
<totfact> 0.12474102E+06</totfact>
</mgrwt>
</event>
<event>
 5    1  0.1154861E-006  0.2000042E+02  0.7818608E-02  0.1745320E+00
          4   -1    0    0  501    0  0.00000000000E+00  0.00000000000E+00  0.23139282067E+01  0.27148966363E+01  0.14200000000E+01 0.  1.
         -4   -1    0    0    0  501 -0.00000000000E+00 -0.00000000000E+00 -0.39357618826E+02  0.39383226883E+02  0.14200000000E+01 0. -1.
       1023    2    1    2    0    0  0.00000000000E+00  0.00000000000E+00 -0.37043690620E+02  0.42098123519E+02  0.20000424723E+02 0.  0.
        -11    1    3    3    0    0 -0.92647300991E+01  0.37639415585E+01 -0.18610328272E+02  0.21126921179E+02  0.51100000000E-03 0.  1.
         11    1    3    3    0    0  0.92647300991E+01 -0.37639415585E+01 -0.18433362348E+02  0.20971202340E+02  0.51100000000E-03 0. -1.
<mgrwt>
<rscale>  0 0.20000425E+02</rscale>
<asrwt>0</asrwt>
<pdfrwt beam="1">  1        4 0.38880256E-03 0.20000425E+02</pdfrwt>
<pdfrwt beam="2">  1       -4 0.60878314E-02 0.20000425E+02</pdfrwt>
<totfact> 0.11865547E+06</totfact>
</mgrwt>
</event>
<event>
 5    1  0.1154861E-006  0.2000047E+02  0.7818608E-02  0.1745319E+00
         -4   -1    0    0    0  501 -0.00000000000E+00  0.00000000000E+00  0.23346334951E+01  0.27325653801E+01  0.14200000000E+01 0.  1.
          4   -1    0    0  501    0  0.00000000000E+00 -0.00000000000E+00 -0.39059557648E+02  0.39085360989E+02  0.14200000000E+01 0. -1.
       1023    2    1    2    0    0  0.00000000000E+00  0.00000000000E+00 -0.36724924153E+02  0.41817926369E+02  0.20000472789E+02 0.  0.
        -11    1    3    3    0    0 -0.94563316248E+01  0.32527131175E+01 -0.18260518297E+02  0.20819435130E+02  0.51100000000E-03 0. -1.
         11    1    3    3    0    0  0.94563316248E+01 -0.32527131175E+01 -0.18464405856E+02  0.20998491239E+02  0.51100000000E-03 0.  1.
<mgrwt>
<rscale>  0 0.20000473E+02</rscale>
<asrwt>0</asrwt>
<pdfrwt beam="2">  1        4 0.60417573E-02 0.20000473E+02</pdfrwt>
<pdfrwt beam="1">  1       -4 0.39176943E-03 0.20000473E+02</pdfrwt>
<totfact> 0.11878258E+06</totfact>
</mgrwt>
</event>
<event>
 5    1  0.1154861E-006  0.2000049E+02  0.7818608E-02  0.1745318E+00
          4   -1    0    0  501    0  0.00000000000E+00  0.00000000000E+00  0.67884456364E+00  0.15739218346E+01  0.14200000000E+01 0.  1.
         -4   -1    0    0    0  501 -0.00000000000E+00 -0.00000000000E+00 -0.87880979795E+02  0.87892451381E+02  0.14200000000E+01 0. -1.
       1023    2    1    2    0    0  0.00000000000E+00  0.00000000000E+00 -0.87202135232E+02  0.89466373216E+02  0.20000488680E+02 0.  0.
        -11    1    3    3    0    0  0.38460414231E+01 -0.92310136154E+01 -0.43443575182E+02  0.44579680033E+02  0.51100000000E-03 0. -1.
         11    1    3    3    0    0 -0.38460414231E+01  0.92310136154E+01 -0.43758560050E+02  0.44886693183E+02  0.51100000000E-03 0.  1.
<mgrwt>
<rscale>  0 0.20000489E+02</rscale>
<asrwt>0</asrwt>
<pdfrwt beam="1">  1        4 0.17417222E-03 0.20000489E+02</pdfrwt>
<pdfrwt beam="2">  1       -4 0.13589880E-01 0.20000489E+02</pdfrwt>
<totfact> 0.10111497E+06</totfact>
</mgrwt>
</event>
<event>
 5    1  0.1154861E-006  0.2001182E+02  0.7818608E-02  0.1745093E+00
         -4   -1    0    0    0  501 -0.00000000000E+00  0.00000000000E+00  0.39017925904E+01  0.41521543105E+01  0.14200000000E+01 0. -1.
          4   -1    0    0  501    0  0.00000000000E+00 -0.00000000000E+00 -0.24590420082E+02  0.24631385666E+02  0.14200000000E+01 0.  1.
       1023    2    1    2    0    0  0.00000000000E+00  0.00000000000E+00 -0.20688627492E+02  0.28783539976E+02  0.20011818160E+02 0.  0.
        -11    1    3    3    0    0 -0.46114384232E+01  0.88798626637E+01 -0.10301380212E+02  0.14360910828E+02  0.51100000000E-03 0.  1.
         11    1    3    3    0    0  0.46114384232E+01 -0.88798626637E+01 -0.10387247279E+02  0.14422629149E+02  0.51100000000E-03 0. -1.
<mgrwt>
<rscale>  0 0.20011818E+02</rscale>
<asrwt>0</asrwt>
<pdfrwt beam="2">  1        4 0.38055513E-02 0.20011818E+02</pdfrwt>
<pdfrwt beam="1">  1       -4 0.62268559E-03 0.20011818E+02</pdfrwt>
<totfact> 0.12504743E+06</totfact>
</mgrwt>
</event>
<event>
 5    1  0.1154861E-006  0.2000053E+02  0.7818608E-02  0.1745317E+00
          4   -1    0    0  501    0  0.00000000000E+00  0.00000000000E+00  0.37702628025E+02  0.37729359390E+02  0.14200000000E+01 0.  1.
         -4   -1    0    0    0  501 -0.00000000000E+00 -0.00000000000E+00 -0.24326794573E+01  0.28167941603E+01  0.14200000000E+01 0. -1.
       1023    2    1    2    0    0  0.00000000000E+00  0.00000000000E+00  0.35269948568E+02  0.40546153551E+02  0.20000532387E+02 0.  0.
        -11    1    3    3    0    0  0.93161422098E+01  0.36352172699E+01  0.17642397815E+02  0.20279534294E+02  0.51100000000E-03 0.  1.
         11    1    3    3    0    0 -0.93161422098E+01 -0.36352172699E+01  0.17627550753E+02  0.20266619257E+02  0.51100000000E-03 0. -1.
<mgrwt>
<rscale>  0 0.20000532E+02</rscale>
<asrwt>0</asrwt>
<pdfrwt beam="1">  1        4 0.58320075E-02 0.20000532E+02</pdfrwt>
<pdfrwt beam="2">  1       -4 0.40586195E-03 0.20000532E+02</pdfrwt>
<totfact> 0.11936622E+06</totfact>
</mgrwt>
</event>
<event>
 5    1  0.1154861E-006  0.2000072E+02  0.7818608E-02  0.1745314E+00
         -4   -1    0    0    0  501 -0.00000000000E+00  0.00000000000E+00  0.18205688249E+01  0.23088678711E+01  0.14200000000E+01 0. -1.
          4   -1    0    0  501    0  0.00000000000E+00 -0.00000000000E+00 -0.47936169076E+02  0.47957196599E+02  0.14200000000E+01 0.  1.
       1023    2    1    2    0    0  0.00000000000E+00  0.00000000000E+00 -0.46115600251E+02  0.50266064470E+02  0.20000716258E+02 0.  0.
        -11    1    3    3    0    0 -0.62768819225E+01  0.77847439751E+01 -0.22868439491E+02  0.24959307090E+02  0.51100000000E-03 0. -1.
         11    1    3    3    0    0  0.62768819225E+01 -0.77847439751E+01 -0.23247160760E+02  0.25306757380E+02  0.51100000000E-03 0.  1.
<mgrwt>
<rscale>  0 0.20000716E+02</rscale>
<asrwt>0</asrwt>
<pdfrwt beam="2">  1        4 0.74139734E-02 0.20000716E+02</pdfrwt>
<pdfrwt beam="1">  1       -4 0.31926651E-03 0.20000716E+02</pdfrwt>
<totfact> 0.11508210E+06</totfact>
</mgrwt>
</event>
<event>
 5    1  0.1154861E-006  0.2000066E+02  0.7818608E-02  0.1745315E+00
          4   -1    0    0  501    0  0.00000000000E+00  0.00000000000E+00  0.71179698333E+02  0.71193861075E+02  0.14200000000E+01 0. -1.
         -4   -1    0    0    0  501 -0.00000000000E+00 -0.00000000000E+00 -0.10281567963E+01  0.17531418647E+01  0.14200000000E+01 0.  1.
       1023    2    1    2    0    0  0.00000000000E+00  0.00000000000E+00  0.70151541537E+02  0.72947002940E+02  0.20000661437E+02 0.  0.
        -11    1    3    3    0    0  0.19931468263E+01  0.97994962176E+01  0.35302187878E+02  0.36691241866E+02  0.51100000000E-03 0. -1.
         11    1    3    3    0    0 -0.19931468263E+01 -0.97994962176E+01  0.34849353658E+02  0.36255761074E+02  0.51100000000E-03 0.  1.
<mgrwt>
<rscale>  0 0.20000661E+02</rscale>
<asrwt>0</asrwt>
<pdfrwt beam="1">  1        4 0.11007582E-01 0.20000661E+02</pdfrwt>
<pdfrwt beam="2">  1       -4 0.21503545E-03 0.20000661E+02</pdfrwt>
<totfact> 0.10647268E+06</totfact>
</mgrwt>
</event>
<event>
 5    1  0.1154861E-006  0.2000057E+02  0.7818608E-02  0.1745317E+00
          4   -1    0    0  501    0  0.00000000000E+00  0.00000000000E+00  0.21098615917E+02  0.21146347051E+02  0.14200000000E+01 0.  1.
         -4   -1    0    0    0  501 -0.00000000000E+00 -0.00000000000E+00 -0.45791478562E+01  0.47942668979E+01  0.14200000000E+01 0. -1.
       1023    2    1    2    0    0  0.00000000000E+00  0.00000000000E+00  0.16519468060E+02  0.25940613949E+02  0.20000565668E+02 0.  0.
        -11    1    3    3    0    0  0.72789134816E+01  0.68570907921E+01  0.83351483401E+01  0.13018332217E+02  0.51100000000E-03 0.  1.
         11    1    3    3    0    0 -0.72789134816E+01 -0.68570907921E+01  0.81843197202E+01  0.12922281732E+02  0.51100000000E-03 0. -1.
<mgrwt>
<rscale>  0 0.20000566E+02</rscale>
<asrwt>0</asrwt>
<pdfrwt beam="1">  1        4 0.32661602E-02 0.20000566E+02</pdfrwt>
<pdfrwt beam="2">  1       -4 0.72470352E-03 0.20000566E+02</pdfrwt>
<totfact> 0.12672709E+06</totfact>
</mgrwt>
</event>
<event>
 5    1  0.1209552E-006  0.2000118E+02  0.7818608E-02  0.1745305E+00
         -4   -1    0    0    0  501 -0.00000000000E+00  0.00000000000E+00  0.27533659649E+02  0.27570252333E+02  0.14200000000E+01 0.  1.
          4   -1    0    0  501    0  0.00000000000E+00 -0.00000000000E+00 -0.34529584370E+01  0.37335401388E+01  0.14200000000E+01 0. -1.
       1023    2    1    2    0    0  0.00000000000E+00  0.00000000000E+00  0.24080701212E+02  0.31303792471E+02  0.20001181270E+02 0.  0.
        -11    1    3    3    0    0  0.93210973031E+01 -0.36231748575E+01  0.11978498358E+02  0.15604315882E+02  0.51100000000E-03 0.  1.
         11    1    3    3    0    0 -0.93210973031E+01  0.36231748575E+01  0.12102202854E+02  0.15699476589E+02  0.51100000000E-03 0. -1.
<mgrwt>
<rscale>  0 0.20001181E+02</rscale>
<asrwt>0</asrwt>
<pdfrwt beam="2">  1        4 0.55562242E-03 0.20001181E+02</pdfrwt>
<pdfrwt beam="1">  1       -4 0.42603456E-02 0.20001181E+02</pdfrwt>
<totfact> 0.12386687E+06</totfact>
</mgrwt>
</event>
<event>
 5    1  0.1154861E-006  0.2000042E+02  0.7818608E-02  0.1745320E+00
          4   -1    0    0  501    0  0.00000000000E+00  0.00000000000E+00  0.13199432535E+02  0.13275594874E+02  0.14200000000E+01 0.  1.
         -4   -1    0    0    0  501 -0.00000000000E+00 -0.00000000000E+00 -0.74108395960E+01  0.75456572621E+01  0.14200000000E+01 0. -1.
       1023    2    1    2    0    0  0.00000000000E+00  0.00000000000E+00  0.57885929392E+01  0.20821252136E+02  0.20000418303E+02 0.  0.
        -11    1    3    3    0    0  0.64696051166E+01 -0.76253038747E+01  0.29525693193E+01  0.10426826717E+02  0.51100000000E-03 0. -1.
         11    1    3    3    0    0 -0.64696051166E+01  0.76253038747E+01  0.28360236199E+01  0.10394425418E+02  0.51100000000E-03 0.  1.
<mgrwt>
<rscale>  0 0.20000418E+02</rscale>
<asrwt>0</asrwt>
<pdfrwt beam="1">  1        4 0.20469112E-02 0.20000418E+02</pdfrwt>
<pdfrwt beam="2">  1       -4 0.11563584E-02 0.20000418E+02</pdfrwt>
<totfact> 0.12964765E+06</totfact>
</mgrwt>
</event>
<event>
 5    1  0.1154861E-006  0.2000054E+02  0.7818608E-02  0.1745317E+00
          4   -1    0    0  501    0  0.00000000000E+00  0.00000000000E+00  0.18335863991E+01  0.23191461970E+01  0.14200000000E+01 0. -1.
         -4   -1    0    0    0  501 -0.00000000000E+00 -0.00000000000E+00 -0.47666277832E+02  0.47687424363E+02  0.14200000000E+01 0. -1.
       1023    2    1    2    0    0  0.00000000000E+00  0.00000000000E+00 -0.45832691433E+02  0.50006570560E+02  0.20000537372E+02 0.  0.
        -11    1    3    3    0    0  0.19171905832E+01 -0.98146614317E+01 -0.23032944239E+02  0.25110151719E+02  0.51100000000E-03 0. -1.
         11    1    3    3    0    0 -0.19171905832E+01  0.98146614317E+01 -0.22799747194E+02  0.24896418841E+02  0.51100000000E-03 0.  1.
<mgrwt>
<rscale>  0 0.20000537E+02</rscale>
<asrwt>0</asrwt>
<pdfrwt beam="1">  1        4 0.32106766E-03 0.20000537E+02</pdfrwt>
<pdfrwt beam="2">  1       -4 0.73722501E-02 0.20000537E+02</pdfrwt>
<totfact> 0.11519316E+06</totfact>
</mgrwt>
</event>
<event>
 5    1  0.1154861E-006  0.2000016E+02  0.7818608E-02  0.1745325E+00
         -4   -1    0    0    0  501 -0.00000000000E+00  0.00000000000E+00  0.46978195090E+02  0.46999651210E+02  0.14200000000E+01 0.  1.
          4   -1    0    0  501    0  0.00000000000E+00 -0.00000000000E+00 -0.18673976420E+01  0.23459697256E+01  0.14200000000E+01 0. -1.
       1023    2    1    2    0    0  0.00000000000E+00  0.00000000000E+00  0.45110797448E+02  0.49345620936E+02  0.20000156479E+02 0.  0.
        -11    1    3    3    0    0  0.68364685224E+01 -0.72982204045E+01  0.22517048754E+02  0.24637751678E+02  0.51100000000E-03 0. -1.
         11    1    3    3    0    0 -0.68364685224E+01  0.72982204045E+01  0.22593748694E+02  0.24707869257E+02  0.51100000000E-03 0.  1.
<mgrwt>
<rscale>  0 0.20000156E+02</rscale>
<asrwt>0</asrwt>
<pdfrwt beam="2">  1        4 0.32575571E-03 0.20000156E+02</pdfrwt>
<pdfrwt beam="1">  1       -4 0.72658771E-02 0.20000156E+02</pdfrwt>
<totfact> 0.11547643E+06</totfact>
</mgrwt>
</event>
<event>
 5    1  0.1175039E-006  0.2000099E+02  0.7818608E-02  0.1745308E+00
          4   -1    0    0  501    0  0.00000000000E+00  0.00000000000E+00  0.24758876491E+02  0.24799563809E+02  0.14200000000E+01 0. -1.
         -4   -1    0    0    0  501 -0.00000000000E+00 -0.00000000000E+00 -0.38690721091E+01  0.41214219616E+01  0.14200000000E+01 0.  1.
       1023    2    1    2    0    0  0.00000000000E+00  0.00000000000E+00  0.20889804382E+02  0.28920985770E+02  0.20000987246E+02 0.  0.
        -11    1    3    3    0    0  0.92882852542E+01 -0.37061104939E+01  0.10374441609E+02  0.14409598777E+02  0.51100000000E-03 0.  1.
         11    1    3    3    0    0 -0.92882852542E+01  0.37061104939E+01  0.10515362773E+02  0.14511386993E+02  0.51100000000E-03 0. -1.
<mgrwt>
<rscale>  0 0.20000987E+02</rscale>
<asrwt>0</asrwt>
<pdfrwt beam="1">  1        4 0.38315992E-02 0.20000987E+02</pdfrwt>
<pdfrwt beam="2">  1       -4 0.61778319E-03 0.20000987E+02</pdfrwt>
<totfact> 0.12511230E+06</totfact>
</mgrwt>
</event>
<event>
 5    1  0.1154861E-006  0.2000287E+02  0.7818608E-02  0.1745271E+00
          4   -1    0    0  501    0  0.00000000000E+00  0.00000000000E+00  0.85923877406E+01  0.87089337513E+01  0.14200000000E+01 0. -1.
         -4   -1    0    0    0  501 -0.00000000000E+00 -0.00000000000E+00 -0.11402250593E+02  0.11490331526E+02  0.14200000000E+01 0.  1.
       1023    2    1    2    0    0  0.00000000000E+00  0.00000000000E+00 -0.28098628522E+01  0.20199265277E+02  0.20002874506E+02 0.  0.
        -11    1    3    3    0    0 -0.25439448389E+01 -0.96724858756E+01 -0.13944125053E+01  0.10098169381E+02  0.51100000000E-03 0. -1.
         11    1    3    3    0    0  0.25439448389E+01  0.96724858756E+01 -0.14154503469E+01  0.10101095896E+02  0.51100000000E-03 0.  1.
<mgrwt>
<rscale>  0 0.20002875E+02</rscale>
<asrwt>0</asrwt>
<pdfrwt beam="1">  1        4 0.13376463E-02 0.20002875E+02</pdfrwt>
<pdfrwt beam="2">  1       -4 0.17699329E-02 0.20002875E+02</pdfrwt>
<totfact> 0.12998373E+06</totfact>
</mgrwt>
</event>
<event>
 5    1  0.1154861E-006  0.2000101E+02  0.7818608E-02  0.1745308E+00
          4   -1    0    0  501    0  0.00000000000E+00  0.00000000000E+00  0.43695628796E+00  0.14857088536E+01  0.14200000000E+01 0. -1.
         -4   -1    0    0    0  501 -0.00000000000E+00 -0.00000000000E+00 -0.10297643952E+03  0.10298622964E+03  0.14200000000E+01 0.  1.
       1023    2    1    2    0    0  0.00000000000E+00  0.00000000000E+00 -0.10253948323E+03  0.10447193850E+03  0.20001007772E+02 0.  0.
        -11    1    3    3    0    0 -0.80599350850E+01  0.59192535434E+01 -0.51791071751E+02  0.52747656151E+02  0.51100000000E-03 0. -1.
         11    1    3    3    0    0  0.80599350850E+01 -0.59192535434E+01 -0.50748411482E+02  0.51724282347E+02  0.51100000000E-03 0.  1.
<mgrwt>
<rscale>  0 0.20001008E+02</rscale>
<asrwt>0</asrwt>
<pdfrwt beam="1">  1        4 0.14865049E-03 0.20001008E+02</pdfrwt>
<pdfrwt beam="2">  1       -4 0.15923947E-01 0.20001008E+02</pdfrwt>
<totfact> 0.96747654E+05</totfact>
</mgrwt>
</event>
<event>
 5    1  0.1181723E-006  0.2000081E+02  0.7818608E-02  0.1745312E+00
         -4   -1    0    0    0  501 -0.00000000000E+00  0.00000000000E+00  0.39923268888E+01  0.42373427980E+01  0.14200000000E+01 0. -1.
          4   -1    0    0  501    0  0.00000000000E+00 -0.00000000000E+00 -0.24037680059E+02  0.24079586015E+02  0.14200000000E+01 0.  1.
       1023    2    1    2    0    0  0.00000000000E+00  0.00000000000E+00 -0.20045353171E+02  0.28316928813E+02  0.20000806825E+02 0.  0.
        -11    1    3    3    0    0  0.42818107204E+01 -0.90373701724E+01 -0.10037216684E+02  0.14168757239E+02  0.51100000000E-03 0. -1.
         11    1    3    3    0    0 -0.42818107204E+01  0.90373701724E+01 -0.10008136487E+02  0.14148171574E+02  0.51100000000E-03 0.  1.
<mgrwt>
<rscale>  0 0.20000807E+02</rscale>
<asrwt>0</asrwt>
<pdfrwt beam="2">  1        4 0.37201755E-02 0.20000807E+02</pdfrwt>
<pdfrwt beam="1">  1       -4 0.63627506E-03 0.20000807E+02</pdfrwt>
<totfact> 0.12543571E+06</totfact>
</mgrwt>
</event>
<event>
 5    1  0.1154861E-006  0.2000538E+02  0.7818608E-02  0.1745221E+00
          4   -1    0    0  501    0  0.00000000000E+00  0.00000000000E+00  0.13131711269E+02  0.13208264112E+02  0.14200000000E+01 0.  1.
         -4   -1    0    0    0  501 -0.00000000000E+00 -0.00000000000E+00 -0.74533311920E+01  0.75873938778E+01  0.14200000000E+01 0. -1.
       1023    2    1    2    0    0  0.00000000000E+00  0.00000000000E+00  0.56783800772E+01  0.20795657990E+02  0.20005384049E+02 0.  0.
        -11    1    3    3    0    0 -0.96111063289E+01 -0.27704895823E+01  0.29117327697E+01  0.10417637226E+02  0.51100000000E-03 0. -1.
         11    1    3    3    0    0  0.96111063289E+01  0.27704895823E+01  0.27666473075E+01  0.10378020764E+02  0.51100000000E-03 0.  1.
<mgrwt>
<rscale>  0 0.20005384E+02</rscale>
<asrwt>0</asrwt>
<pdfrwt beam="1">  1        4 0.20364645E-02 0.20005384E+02</pdfrwt>
<pdfrwt beam="2">  1       -4 0.11628675E-02 0.20005384E+02</pdfrwt>
<totfact> 0.12959714E+06</totfact>
</mgrwt>
</event>
<event>
 5    1  0.1154861E-006  0.2000061E+02  0.7818608E-02  0.1745316E+00
          4   -1    0    0  501    0  0.00000000000E+00  0.00000000000E+00  0.43258077978E+02  0.43281378332E+02  0.14200000000E+01 0. -1.
         -4   -1    0    0    0  501 -0.00000000000E+00 -0.00000000000E+00 -0.20675295431E+01  0.25082022270E+01  0.14200000000E+01 0.  1.
       1023    2    1    2    0    0  0.00000000000E+00  0.00000000000E+00  0.41190548435E+02  0.45789580559E+02  0.20000610177E+02 0.  0.
        -11    1    3    3    0    0  0.60606841566E+01 -0.79544105960E+01  0.20504814324E+02  0.22813416033E+02  0.51100000000E-03 0. -1.
         11    1    3    3    0    0 -0.60606841566E+01  0.79544105960E+01  0.20685734111E+02  0.22976164526E+02  0.51100000000E-03 0.  1.
<mgrwt>
<rscale>  0 0.20000610E+02</rscale>
<asrwt>0</asrwt>
<pdfrwt beam="1">  1        4 0.66907798E-02 0.20000610E+02</pdfrwt>
<pdfrwt beam="2">  1       -4 0.35377167E-03 0.20000610E+02</pdfrwt>
<totfact> 0.11700314E+06</totfact>
</mgrwt>
</event>
<event>
 5    1  0.1154861E-006  0.2000023E+02  0.7818608E-02  0.1745324E+00
          4   -1    0    0  501    0  0.00000000000E+00  0.00000000000E+00  0.42697573123E+01  0.44996919345E+01  0.14200000000E+01 0. -1.
         -4   -1    0    0    0  501 -0.00000000000E+00 -0.00000000000E+00 -0.22554122463E+02  0.22598779615E+02  0.14200000000E+01 0.  1.
       1023    2    1    2    0    0  0.00000000000E+00  0.00000000000E+00 -0.18284365151E+02  0.27098471549E+02  0.20000228782E+02 0.  0.
        -11    1    3    3    0    0  0.38308515551E+01 -0.92372537460E+01 -0.91458105245E+01  0.13551683689E+02  0.51100000000E-03 0.  1.
         11    1    3    3    0    0 -0.38308515551E+01  0.92372537460E+01 -0.91385546264E+01  0.13546787860E+02  0.51100000000E-03 0. -1.
<mgrwt>
<rscale>  0 0.20000229E+02</rscale>
<asrwt>0</asrwt>
<pdfrwt beam="1">  1        4 0.67800820E-03 0.20000229E+02</pdfrwt>
<pdfrwt beam="2">  1       -4 0.34909874E-02 0.20000229E+02</pdfrwt>
<totfact> 0.12609859E+06</totfact>
</mgrwt>
</event>
<event>
 4    1  0.1154861E-006  0.2006699E+02  0.7818608E-02  0.1743999E+00
          4   -1    0    0  501    0  0.00000000000E+00  0.00000000000E+00  0.77636869825E+01  0.78924796840E+01  0.14200000000E+01 0.  1.
         -4   -1    0    0    0  501 -0.00000000000E+00 -0.00000000000E+00 -0.12691526515E+02  0.12770718275E+02  0.14200000000E+01 0. -1.
        -11    1    1    2    0    0 -0.99327687480E+01  0.13300488956E+01 -0.19572523076E+01  0.10210766961E+02  0.51100000000E-03 0.  1.
         11    1    1    2    0    0  0.99327687480E+01 -0.13300488956E+01 -0.29705872244E+01  0.10452430999E+02  0.51100000000E-03 0. -1.
<mgrwt>
<rscale>  0 0.20066991E+02</rscale>
<asrwt>0</asrwt>
<pdfrwt beam="1">  1        4 0.12104122E-02 0.20066991E+02</pdfrwt>
<pdfrwt beam="2">  1       -4 0.19685413E-02 0.20066991E+02</pdfrwt>
<totfact> 0.12886388E+06</totfact>
</mgrwt>
</event>
<event>
 5    1  0.1154861E-006  0.2000071E+02  0.7818608E-02  0.1745314E+00
         -4   -1    0    0    0  501 -0.00000000000E+00  0.00000000000E+00  0.10969179494E+01  0.17943324630E+01  0.14200000000E+01 0.  1.
          4   -1    0    0  501    0  0.00000000000E+00 -0.00000000000E+00 -0.68472550720E+02  0.68487273286E+02  0.14200000000E+01 0. -1.
       1023    2    1    2    0    0  0.00000000000E+00  0.00000000000E+00 -0.67375632771E+02  0.70281605749E+02  0.20000705372E+02 0.  0.
        -11    1    3    3    0    0  0.94172175504E+01 -0.33645478065E+01 -0.33499065984E+02  0.34959856842E+02  0.51100000000E-03 0. -1.
         11    1    3    3    0    0 -0.94172175504E+01  0.33645478065E+01 -0.33876566787E+02  0.35321748907E+02  0.51100000000E-03 0.  1.
<mgrwt>
<rscale>  0 0.20000705E+02</rscale>
<asrwt>0</asrwt>
<pdfrwt beam="2">  1        4 0.10589016E-01 0.20000705E+02</pdfrwt>
<pdfrwt beam="1">  1       -4 0.22353644E-03 0.20000705E+02</pdfrwt>
<totfact> 0.10740110E+06</totfact>
</mgrwt>
</event>
<event>
 5    1  0.1154861E-006  0.2000028E+02  0.7818608E-02  0.1745322E+00
          4   -1    0    0  501    0  0.00000000000E+00  0.00000000000E+00  0.41030464745E+00  0.14780899512E+01  0.14200000000E+01 0. -1.
         -4   -1    0    0    0  501 -0.00000000000E+00 -0.00000000000E+00 -0.10483775999E+03  0.10484737631E+03  0.14200000000E+01 0.  1.
       1023    2    1    2    0    0  0.00000000000E+00  0.00000000000E+00 -0.10442745534E+03  0.10632546626E+03  0.20000283672E+02 0.  0.
        -11    1    3    3    0    0  0.42972045210E+01 -0.90297211444E+01 -0.52045124395E+02  0.52997139585E+02  0.51100000000E-03 0.  1.
         11    1    3    3    0    0 -0.42972045210E+01  0.90297211444E+01 -0.52382330948E+02  0.53328326679E+02  0.51100000000E-03 0. -1.
<mgrwt>
<rscale>  0 0.20000284E+02</rscale>
<asrwt>0</asrwt>
<pdfrwt beam="1">  1        4 0.14600092E-03 0.20000284E+02</pdfrwt>
<pdfrwt beam="2">  1       -4 0.16211754E-01 0.20000284E+02</pdfrwt>
<totfact> 0.96244423E+05</totfact>
</mgrwt>
</event>
<event>
 5    1  0.1204261E-006  0.2000124E+02  0.7818608E-02  0.1745303E+00
         -4   -1    0    0    0  501 -0.00000000000E+00  0.00000000000E+00  0.25131866324E+02  0.25171950757E+02  0.14200000000E+01 0.  1.
          4   -1    0    0  501    0  0.00000000000E+00 -0.00000000000E+00 -0.38080793883E+01  0.40642180832E+01  0.14200000000E+01 0. -1.
       1023    2    1    2    0    0  0.00000000000E+00  0.00000000000E+00  0.21323786936E+02  0.29236168841E+02  0.20001241941E+02 0.  0.
        -11    1    3    3    0    0  0.99965911961E+01 -0.27915762627E+00  0.10586575784E+02  0.14563150470E+02  0.51100000000E-03 0. -1.
         11    1    3    3    0    0 -0.99965911961E+01  0.27915762627E+00  0.10737211152E+02  0.14673018370E+02  0.51100000000E-03 0.  1.
<mgrwt>
<rscale>  0 0.20001242E+02</rscale>
<asrwt>0</asrwt>
<pdfrwt beam="2">  1        4 0.60864477E-03 0.20001242E+02</pdfrwt>
<pdfrwt beam="1">  1       -4 0.38892273E-02 0.20001242E+02</pdfrwt>
<totfact> 0.12494252E+06</totfact>
</mgrwt>
</event>
<event>
 5    1  0.1154861E-006  0.2000055E+02  0.7818608E-02  0.1745317E+00
          4   -1    0    0  501    0  0.00000000000E+00  0.00000000000E+00  0.89307874811E+02  0.89319163136E+02  0.14200000000E+01 0.  1.
         -4   -1    0    0    0  501 -0.00000000000E+00 -0.00000000000E+00 -0.65359448124E+00  0.15631972831E+01  0.14200000000E+01 0. -1.
       1023    2    1    2    0    0  0.00000000000E+00  0.00000000000E+00  0.88654280330E+02  0.90882360419E+02  0.20000550355E+02 0.  0.
        -11    1    3    3    0    0 -0.46557386344E+01  0.88502787927E+01  0.44538639650E+02  0.45647494554E+02  0.51100000000E-03 0. -1.
         11    1    3    3    0    0  0.46557386344E+01 -0.88502787927E+01  0.44115640680E+02  0.45234865865E+02  0.51100000000E-03 0.  1.
<mgrwt>
<rscale>  0 0.20000550E+02</rscale>
<asrwt>0</asrwt>
<pdfrwt beam="1">  1        4 0.13810508E-01 0.20000550E+02</pdfrwt>
<pdfrwt beam="2">  1       -4 0.17139081E-03 0.20000550E+02</pdfrwt>
<totfact> 0.10068359E+06</totfact>
</mgrwt>
</event>
<event>
 5    1  0.1154861E-006  0.2000097E+02  0.7818608E-02  0.1745309E+00
         -4   -1    0    0    0  501 -0.00000000000E+00  0.00000000000E+00  0.13319240667E+01  0.19469005417E+01  0.14200000000E+01 0. -1.
          4   -1    0    0  501    0  0.00000000000E+00 -0.00000000000E+00 -0.60378483237E+02  0.60395178930E+02  0.14200000000E+01 0.  1.
       1023    2    1    2    0    0  0.00000000000E+00  0.00000000000E+00 -0.59046559170E+02  0.62342079472E+02  0.20000968052E+02 0.  0.
        -11    1    3    3    0    0  0.17561809457E+01  0.98450071762E+01 -0.29637492858E+02  0.31279215479E+02  0.51100000000E-03 0.  1.
         11    1    3    3    0    0 -0.17561809457E+01 -0.98450071762E+01 -0.29409066312E+02  0.31062863993E+02  0.51100000000E-03 0. -1.
<mgrwt>
<rscale>  0 0.20000968E+02</rscale>
<asrwt>0</asrwt>
<pdfrwt beam="2">  1        4 0.93375858E-02 0.20000968E+02</pdfrwt>
<pdfrwt beam="1">  1       -4 0.25350161E-03 0.20000968E+02</pdfrwt>
<totfact> 0.11028768E+06</totfact>
</mgrwt>
</event>
<event>
 5    1  0.1154861E-006  0.2000048E+02  0.7818608E-02  0.1745319E+00
         -4   -1    0    0    0  501 -0.00000000000E+00  0.00000000000E+00  0.86804700793E+00  0.16643033401E+01  0.14200000000E+01 0.  1.
          4   -1    0    0  501    0  0.00000000000E+00 -0.00000000000E+00 -0.78177051883E+02  0.78189947187E+02  0.14200000000E+01 0. -1.
       1023    2    1    2    0    0  0.00000000000E+00  0.00000000000E+00 -0.77309004875E+02  0.79854250527E+02  0.20000477306E+02 0.  0.
        -11    1    3    3    0    0  0.46739684706E+01 -0.88407357939E+01 -0.38708398150E+02  0.39979303123E+02  0.51100000000E-03 0.  1.
         11    1    3    3    0    0 -0.46739684706E+01  0.88407357939E+01 -0.38600606725E+02  0.39874947404E+02  0.51100000000E-03 0. -1.
<mgrwt>
<rscale>  0 0.20000477E+02</rscale>
<asrwt>0</asrwt>
<pdfrwt beam="2">  1        4 0.12089477E-01 0.20000477E+02</pdfrwt>
<pdfrwt beam="1">  1       -4 0.19578819E-03 0.20000477E+02</pdfrwt>
<totfact> 0.10415430E+06</totfact>
</mgrwt>
</event>
<event>
 4    1  0.1154861E-006  0.2008609E+02  0.7818608E-02  0.1743621E+00
         -4   -1    0    0    0  501 -0.00000000000E+00  0.00000000000E+00  0.23115182478E+01  0.27128429018E+01  0.14200000000E+01 0. -1.
          4   -1    0    0  501    0  0.00000000000E+00 -0.00000000000E+00 -0.39734470940E+02  0.39759836278E+02  0.14200000000E+01 0.  1.
        -11    1    1    2    0    0  0.50695723191E+00 -0.10030195508E+02 -0.18646497359E+02  0.21179086184E+02  0.51100000000E-03 0. -1.
         11    1    1    2    0    0 -0.50695723191E+00  0.10030195508E+02 -0.18776455333E+02  0.21293592996E+02  0.51100000000E-03 0.  1.
<mgrwt>
<rscale>  0 0.20086092E+02</rscale>
<asrwt>0</asrwt>
<pdfrwt beam="2">  1        4 0.61458174E-02 0.20086092E+02</pdfrwt>
<pdfrwt beam="1">  1       -4 0.38844053E-03 0.20086092E+02</pdfrwt>
<totfact> 0.11746499E+06</totfact>
</mgrwt>
</event>
<event>
 5    1  0.1154861E-006  0.2000138E+02  0.7818608E-02  0.1745301E+00
          4   -1    0    0  501    0  0.00000000000E+00  0.00000000000E+00  0.47782390944E+02  0.47803486110E+02  0.14200000000E+01 0.  1.
         -4   -1    0    0    0  501 -0.00000000000E+00 -0.00000000000E+00 -0.18281494916E+01  0.23148500089E+01  0.14200000000E+01 0. -1.
       1023    2    1    2    0    0  0.00000000000E+00  0.00000000000E+00  0.45954241452E+02  0.50118336119E+02  0.20001382650E+02 0.  0.
        -11    1    3    3    0    0 -0.80336886085E+01 -0.59555185406E+01  0.22791746959E+02  0.24889196119E+02  0.51100000000E-03 0. -1.
         11    1    3    3    0    0  0.80336886085E+01  0.59555185406E+01  0.23162494493E+02  0.25229140000E+02  0.51100000000E-03 0.  1.
<mgrwt>
<rscale>  0 0.20001383E+02</rscale>
<asrwt>0</asrwt>
<pdfrwt beam="1">  1        4 0.73901973E-02 0.20001383E+02</pdfrwt>
<pdfrwt beam="2">  1       -4 0.32031502E-03 0.20001383E+02</pdfrwt>
<totfact> 0.11513637E+06</totfact>
</mgrwt>
</event>
<event>
 5    1  0.1154861E-006  0.2000018E+02  0.7818608E-02  0.1745325E+00
         -4   -1    0    0    0  501 -0.00000000000E+00  0.00000000000E+00  0.41828883194E+02  0.41852979216E+02  0.14200000000E+01 0.  1.
          4   -1    0    0  501    0  0.00000000000E+00 -0.00000000000E+00 -0.21528198417E+01  0.25789597265E+01  0.14200000000E+01 0. -1.
       1023    2    1    2    0    0  0.00000000000E+00  0.00000000000E+00  0.39676063352E+02  0.44431938943E+02  0.20000179876E+02 0.  0.
        -11    1    3    3    0    0  0.32045570857E+01  0.94727270474E+01  0.19821604924E+02  0.22201300994E+02  0.51100000000E-03 0.  1.
         11    1    3    3    0    0 -0.32045570857E+01 -0.94727270474E+01  0.19854458429E+02  0.22230637948E+02  0.51100000000E-03 0. -1.
<mgrwt>
<rscale>  0 0.20000180E+02</rscale>
<asrwt>0</asrwt>
<pdfrwt beam="2">  1        4 0.36583659E-03 0.20000180E+02</pdfrwt>
<pdfrwt beam="1">  1       -4 0.64698462E-02 0.20000180E+02</pdfrwt>
<totfact> 0.11760786E+06</totfact>
</mgrwt>
</event>
<event>
 5    1  0.1160239E-006  0.2000182E+02  0.7818608E-02  0.1745292E+00
          4   -1    0    0  501    0  0.00000000000E+00  0.00000000000E+00  0.19138842175E+02  0.19191448091E+02  0.14200000000E+01 0. -1.
         -4   -1    0    0    0  501 -0.00000000000E+00 -0.00000000000E+00 -0.50684360421E+01  0.52635961009E+01  0.14200000000E+01 0.  1.
       1023    2    1    2    0    0  0.00000000000E+00  0.00000000000E+00  0.14070406133E+02  0.24455044192E+02  0.20001821358E+02 0.  0.
        -11    1    3    3    0    0 -0.75022231411E+01  0.66123784201E+01  0.71652504702E+01  0.12302345914E+02  0.51100000000E-03 0.  1.
         11    1    3    3    0    0  0.75022231411E+01 -0.66123784201E+01  0.69051556631E+01  0.12152698277E+02  0.51100000000E-03 0. -1.
<mgrwt>
<rscale>  0 0.20001821E+02</rscale>
<asrwt>0</asrwt>
<pdfrwt beam="1">  1        4 0.29634961E-02 0.20001821E+02</pdfrwt>
<pdfrwt beam="2">  1       -4 0.79881832E-03 0.20001821E+02</pdfrwt>
<totfact> 0.12753762E+06</totfact>
</mgrwt>
</event>
<event>
 5    1  0.1163534E-006  0.2000196E+02  0.7818608E-02  0.1745289E+00
          4   -1    0    0  501    0  0.00000000000E+00  0.00000000000E+00  0.24086728509E+02  0.24128549278E+02  0.14200000000E+01 0. -1.
         -4   -1    0    0    0  501 -0.00000000000E+00 -0.00000000000E+00 -0.39842068534E+01  0.42296931627E+01  0.14200000000E+01 0.  1.
       1023    2    1    2    0    0  0.00000000000E+00  0.00000000000E+00  0.20102521655E+02  0.28358242441E+02  0.20001963339E+02 0.  0.
        -11    1    3    3    0    0  0.64190479834E+01  0.76684975353E+01  0.99123289896E+01  0.14080635558E+02  0.51100000000E-03 0. -1.
         11    1    3    3    0    0 -0.64190479834E+01 -0.76684975353E+01  0.10190192666E+02  0.14277606882E+02  0.51100000000E-03 0.  1.
<mgrwt>
<rscale>  0 0.20001963E+02</rscale>
<asrwt>0</asrwt>
<pdfrwt beam="1">  1        4 0.37277510E-02 0.20001963E+02</pdfrwt>
<pdfrwt beam="2">  1       -4 0.63505545E-03 0.20001963E+02</pdfrwt>
<totfact> 0.12539892E+06</totfact>
</mgrwt>
</event>
<event>
 5    1  0.1157467E-006  0.2000156E+02  0.7818608E-02  0.1745297E+00
         -4   -1    0    0    0  501 -0.00000000000E+00  0.00000000000E+00  0.48254833773E+01  0.50300785108E+01  0.14200000000E+01 0.  1.
          4   -1    0    0  501    0  0.00000000000E+00 -0.00000000000E+00 -0.20066071927E+02  0.20116253194E+02  0.14200000000E+01 0. -1.
       1023    2    1    2    0    0  0.00000000000E+00  0.00000000000E+00 -0.15240588550E+02  0.25146331705E+02  0.20001561411E+02 0.  0.
        -11    1    3    3    0    0 -0.91979486771E+01 -0.39249289335E+01 -0.77347457734E+01  0.12642532161E+02  0.51100000000E-03 0. -1.
         11    1    3    3    0    0  0.91979486771E+01  0.39249289335E+01 -0.75058427764E+01  0.12503799544E+02  0.51100000000E-03 0.  1.
<mgrwt>
<rscale>  0 0.20001561E+02</rscale>
<asrwt>0</asrwt>
<pdfrwt beam="2">  1        4 0.31066861E-02 0.20001561E+02</pdfrwt>
<pdfrwt beam="1">  1       -4 0.76198025E-03 0.20001561E+02</pdfrwt>
<totfact> 0.12715416E+06</totfact>
</mgrwt>
</event>
<event>
 5    1  0.1154861E-006  0.2000005E+02  0.7818608E-02  0.1745327E+00
          4   -1    0    0  501    0  0.00000000000E+00  0.00000000000E+00  0.23756428835E+01  0.27676847924E+01  0.14200000000E+01 0. -1.
         -4   -1    0    0    0  501 -0.00000000000E+00 -0.00000000000E+00 -0.38479370268E+02  0.38505562406E+02  0.14200000000E+01 0.  1.
       1023    2    1    2    0    0  0.00000000000E+00  0.00000000000E+00 -0.36103727385E+02  0.41273247199E+02  0.20000045082E+02 0.  0.
        -11    1    3    3    0    0 -0.83974547011E+01  0.54298228658E+01 -0.18020652333E+02  0.20609321497E+02  0.51100000000E-03 0. -1.
         11    1    3    3    0    0  0.83974547011E+01 -0.54298228658E+01 -0.18083075051E+02  0.20663925701E+02  0.51100000000E-03 0.  1.
<mgrwt>
<rscale>  0 0.20000045E+02</rscale>
<asrwt>0</asrwt>
<pdfrwt beam="1">  1        4 0.39765540E-03 0.20000045E+02</pdfrwt>
<pdfrwt beam="2">  1       -4 0.59520745E-02 0.20000045E+02</pdfrwt>
<totfact> 0.11903702E+06</totfact>
</mgrwt>
</event>
<event>
 5    1  0.1175272E-006  0.2000130E+02  0.7818608E-02  0.1745302E+00
          4   -1    0    0  501    0  0.00000000000E+00  0.00000000000E+00  0.16390319535E+01  0.21685999504E+01  0.14200000000E+01 0. -1.
         -4   -1    0    0    0  501 -0.00000000000E+00 -0.00000000000E+00 -0.51992307804E+02  0.52011695519E+02  0.14200000000E+01 0.  1.
       1023    2    1    2    0    0  0.00000000000E+00  0.00000000000E+00 -0.50353275851E+02  0.54180295470E+02  0.20001300665E+02 0.  0.
        -11    1    3    3    0    0 -0.13567692773E+01  0.99081553305E+01 -0.25245267782E+02  0.27153929929E+02  0.51100000000E-03 0.  1.
         11    1    3    3    0    0  0.13567692773E+01 -0.99081553305E+01 -0.25108008068E+02  0.27026365541E+02  0.51100000000E-03 0. -1.
<mgrwt>
<rscale>  0 0.20001301E+02</rscale>
<asrwt>0</asrwt>
<pdfrwt beam="1">  1        4 0.29438616E-03 0.20001301E+02</pdfrwt>
<pdfrwt beam="2">  1       -4 0.80410429E-02 0.20001301E+02</pdfrwt>
<totfact> 0.11346420E+06</totfact>
</mgrwt>
</event>
<event>
 5    1  0.1154861E-006  0.2000719E+02  0.7818608E-02  0.1745185E+00
         -4   -1    0    0    0  501 -0.00000000000E+00  0.00000000000E+00  0.54671877321E+01  0.56485875844E+01  0.14200000000E+01 0. -1.
          4   -1    0    0  501    0  0.00000000000E+00 -0.00000000000E+00 -0.17795247608E+02  0.17851813281E+02  0.14200000000E+01 0. -1.
       1023    2    1    2    0    0  0.00000000000E+00  0.00000000000E+00 -0.12328059876E+02  0.23500400865E+02  0.20007193220E+02 0.  0.
        -11    1    3    3    0    0  0.68219015840E+01 -0.73165211742E+01 -0.62181323434E+01  0.11778581978E+02  0.51100000000E-03 0. -1.
         11    1    3    3    0    0 -0.68219015840E+01  0.73165211742E+01 -0.61099275321E+01  0.11721818887E+02  0.51100000000E-03 0.  1.
<mgrwt>
<rscale>  0 0.20007193E+02</rscale>
<asrwt>0</asrwt>
<pdfrwt beam="2">  1        4 0.27560354E-02 0.20007193E+02</pdfrwt>
<pdfrwt beam="1">  1       -4 0.85941086E-03 0.20007193E+02</pdfrwt>
<totfact> 0.12800658E+06</totfact>
</mgrwt>
</event>
<event>
 5    1  0.1164582E-006  0.2000189E+02  0.7818608E-02  0.1745291E+00
          4   -1    0    0  501    0  0.00000000000E+00  0.00000000000E+00  0.23576963703E+02  0.23619687074E+02  0.14200000000E+01 0.  1.
         -4   -1    0    0    0  501 -0.00000000000E+00 -0.00000000000E+00 -0.40754059711E+01  0.43157078017E+01  0.14200000000E+01 0. -1.
       1023    2    1    2    0    0  0.00000000000E+00  0.00000000000E+00  0.19501557732E+02  0.27935394876E+02  0.20001888233E+02 0.  0.
        -11    1    3    3    0    0  0.58533765954E+01 -0.81087993560E+01  0.98417041034E+01  0.14031171886E+02  0.51100000000E-03 0.  1.
         11    1    3    3    0    0 -0.58533765954E+01  0.81087993560E+01  0.96598536289E+01  0.13904222990E+02  0.51100000000E-03 0. -1.
<mgrwt>
<rscale>  0 0.20001888E+02</rscale>
<asrwt>0</asrwt>
<pdfrwt beam="1">  1        4 0.36489963E-02 0.20001888E+02</pdfrwt>
<pdfrwt beam="2">  1       -4 0.64875671E-03 0.20001888E+02</pdfrwt>
<totfact> 0.12562602E+06</totfact>
</mgrwt>
</event>
<event>
 5    1  0.1154861E-006  0.2000313E+02  0.7818608E-02  0.1745266E+00
          4   -1    0    0  501    0  0.00000000000E+00  0.00000000000E+00  0.46140373701E+02  0.46162219241E+02  0.14200000000E+01 0.  1.
         -4   -1    0    0    0  501 -0.00000000000E+00 -0.00000000000E+00 -0.19106129244E+01  0.23805129168E+01  0.14200000000E+01 0. -1.
       1023    2    1    2    0    0  0.00000000000E+00  0.00000000000E+00  0.44229760776E+02  0.48542732158E+02  0.20003127431E+02 0.  0.
        -11    1    3    3    0    0 -0.50738839608E+01  0.86177477360E+01  0.21759859838E+02  0.23947888736E+02  0.51100000000E-03 0.  1.
         11    1    3    3    0    0  0.50738839608E+01 -0.86177477360E+01  0.22469900939E+02  0.24594843422E+02  0.51100000000E-03 0. -1.
<mgrwt>
<rscale>  0 0.20003127E+02</rscale>
<asrwt>0</asrwt>
<pdfrwt beam="1">  1        4 0.71363453E-02 0.20003127E+02</pdfrwt>
<pdfrwt beam="2">  1       -4 0.33176704E-03 0.20003127E+02</pdfrwt>
<totfact> 0.11578289E+06</totfact>
</mgrwt>
</event>
<event>
 5    1  0.1154861E-006  0.2000068E+02  0.7818608E-02  0.1745314E+00
          4   -1    0    0  501    0  0.00000000000E+00  0.00000000000E+00  0.52362313849E+02  0.52381564616E+02  0.14200000000E+01 0.  1.
         -4   -1    0    0    0  501 -0.00000000000E+00 -0.00000000000E+00 -0.16235659519E+01  0.21569344914E+01  0.14200000000E+01 0. -1.
       1023    2    1    2    0    0  0.00000000000E+00  0.00000000000E+00  0.50738747897E+02  0.54538499107E+02  0.20000683656E+02 0.  0.
        -11    1    3    3    0    0  0.83895656153E+01 -0.54425701940E+01  0.25427532099E+02  0.27323355768E+02  0.51100000000E-03 0. -1.
         11    1    3    3    0    0 -0.83895656153E+01  0.54425701940E+01  0.25311215799E+02  0.27215143340E+02  0.51100000000E-03 0.  1.
<mgrwt>
<rscale>  0 0.20000684E+02</rscale>
<asrwt>0</asrwt>
<pdfrwt beam="1">  1        4 0.80982505E-02 0.20000684E+02</pdfrwt>
<pdfrwt beam="2">  1       -4 0.29228853E-03 0.20000684E+02</pdfrwt>
<totfact> 0.11332676E+06</totfact>
</mgrwt>
</event>
<event>
 5    1  0.1154861E-006  0.2000027E+02  0.7818608E-02  0.1745323E+00
         -4   -1    0    0    0  501 -0.00000000000E+00  0.00000000000E+00  0.63977867258E+02  0.63993623893E+02  0.14200000000E+01 0. -1.
          4   -1    0    0  501    0  0.00000000000E+00 -0.00000000000E+00 -0.12212573765E+01  0.18729307461E+01  0.14200000000E+01 0.  1.
       1023    2    1    2    0    0  0.00000000000E+00  0.00000000000E+00  0.62756609882E+02  0.65866554639E+02  0.20000273401E+02 0.  0.
        -11    1    3    3    0    0  0.18985669699E+01 -0.98182553818E+01  0.31398736888E+02  0.32952744555E+02  0.51100000000E-03 0.  1.
         11    1    3    3    0    0 -0.18985669699E+01  0.98182553818E+01  0.31357872993E+02  0.32913810084E+02  0.51100000000E-03 0. -1.
<mgrwt>
<rscale>  0 0.20000273E+02</rscale>
<asrwt>0</asrwt>
<pdfrwt beam="2">  1        4 0.23922653E-03 0.20000273E+02</pdfrwt>
<pdfrwt beam="1">  1       -4 0.98940890E-02 0.20000273E+02</pdfrwt>
<totfact> 0.10898907E+06</totfact>
</mgrwt>
</event>
<event>
 5    1  0.1154861E-006  0.2000036E+02  0.7818608E-02  0.1745321E+00
         -4   -1    0    0    0  501 -0.00000000000E+00  0.00000000000E+00  0.19345576927E+01  0.23997736282E+01  0.14200000000E+01 0. -1.
          4   -1    0    0  501    0  0.00000000000E+00 -0.00000000000E+00 -0.45667424803E+02  0.45689496475E+02  0.14200000000E+01 0.  1.
       1023    2    1    2    0    0  0.00000000000E+00  0.00000000000E+00 -0.43732867111E+02  0.48089270104E+02  0.20000355831E+02 0.  0.
        -11    1    3    3    0    0  0.61494428366E+01 -0.78858035826E+01 -0.21758562712E+02  0.23946536219E+02  0.51100000000E-03 0. -1.
         11    1    3    3    0    0 -0.61494428366E+01  0.78858035826E+01 -0.21974304399E+02  0.24142733885E+02  0.51100000000E-03 0.  1.
<mgrwt>
<rscale>  0 0.20000356E+02</rscale>
<asrwt>0</asrwt>
<pdfrwt beam="2">  1        4 0.70632406E-02 0.20000356E+02</pdfrwt>
<pdfrwt beam="1">  1       -4 0.33510796E-03 0.20000356E+02</pdfrwt>
<totfact> 0.11600916E+06</totfact>
</mgrwt>
</event>
<event>
 4    1  0.1154861E-006  0.2001327E+02  0.7818608E-02  0.1745064E+00
         -4   -1    0    0    0  501 -0.00000000000E+00  0.00000000000E+00  0.19971804942E+01  0.24505366609E+01  0.14200000000E+01 0.  1.
          4   -1    0    0  501    0  0.00000000000E+00 -0.00000000000E+00 -0.44560758176E+02  0.44583377724E+02  0.14200000000E+01 0. -1.
        -11    1    1    2    0    0  0.97370759089E+01 -0.22956243867E+01 -0.20744843271E+02  0.23031045595E+02  0.51100000000E-03 0.  1.
         11    1    1    2    0    0 -0.97370759089E+01  0.22956243867E+01 -0.21818734411E+02  0.24002868790E+02  0.51100000000E-03 0. -1.
<mgrwt>
<rscale>  0 0.20013270E+02</rscale>
<asrwt>0</asrwt>
<pdfrwt beam="2">  1        4 0.68921141E-02 0.20013270E+02</pdfrwt>
<pdfrwt beam="1">  1       -4 0.34387209E-03 0.20013270E+02</pdfrwt>
<totfact> 0.11631211E+06</totfact>
</mgrwt>
</event>
<event>
 5    1  0.1154861E-006  0.2000282E+02  0.7818608E-02  0.1745272E+00
         -4   -1    0    0    0  501 -0.00000000000E+00  0.00000000000E+00  0.30630672635E+02  0.30663569689E+02  0.14200000000E+01 0.  1.
          4   -1    0    0  501    0  0.00000000000E+00 -0.00000000000E+00 -0.30748640022E+01  0.33869143231E+01  0.14200000000E+01 0. -1.
       1023    2    1    2    0    0  0.00000000000E+00  0.00000000000E+00  0.27555808633E+02  0.34050484012E+02  0.20002821602E+02 0.  0.
        -11    1    3    3    0    0  0.17330914397E+01 -0.98496708530E+01  0.13620078601E+02  0.16897519440E+02  0.51100000000E-03 0.  1.
         11    1    3    3    0    0 -0.17330914397E+01  0.98496708530E+01  0.13935730032E+02  0.17152964572E+02  0.51100000000E-03 0. -1.
<mgrwt>
<rscale>  0 0.20002822E+02</rscale>
<asrwt>0</asrwt>
<pdfrwt beam="2">  1        4 0.49959040E-03 0.20002822E+02</pdfrwt>
<pdfrwt beam="1">  1       -4 0.47389457E-02 0.20002822E+02</pdfrwt>
<totfact> 0.12245526E+06</totfact>
</mgrwt>
</event>
<event>
 4    1  0.1333664E-006  0.2019489E+02  0.7818608E-02  0.1741480E+00
         -4   -1    0    0    0  501 -0.00000000000E+00  0.00000000000E+00  0.13096450465E+02  0.13173208219E+02  0.14200000000E+01 0. -1.
          4   -1    0    0  501    0  0.00000000000E+00 -0.00000000000E+00 -0.76199059456E+01  0.77510880926E+01  0.14200000000E+01 0.  1.
        -11    1    1    2    0    0 -0.91770712795E+01 -0.40007865678E+01  0.41024424501E+01  0.10819194274E+02  0.51100000000E-03 0. -1.
         11    1    1    2    0    0  0.91770712795E+01  0.40007865678E+01  0.13741020698E+01  0.10105102038E+02  0.51100000000E-03 0.  1.
<mgrwt>
<rscale>  0 0.20194891E+02</rscale>
<asrwt>0</asrwt>
<pdfrwt beam="2">  1        4 0.11882886E-02 0.20194891E+02</pdfrwt>
<pdfrwt beam="1">  1       -4 0.20308339E-02 0.20194891E+02</pdfrwt>
<totfact> 0.12705017E+06</totfact>
</mgrwt>
</event>
<event>
 5    1  0.1154861E-006  0.2000321E+02  0.7818608E-02  0.1745264E+00
         -4   -1    0    0    0  501 -0.00000000000E+00  0.00000000000E+00  0.31260935804E+02  0.31293170299E+02  0.14200000000E+01 0. -1.
          4   -1    0    0  501    0  0.00000000000E+00 -0.00000000000E+00 -0.30067170396E+01  0.33251687711E+01  0.14200000000E+01 0.  1.
       1023    2    1    2    0    0  0.00000000000E+00  0.00000000000E+00  0.28254218765E+02  0.34618339070E+02  0.20003212791E+02 0.  0.
        -11    1    3    3    0    0  0.58060961073E+01 -0.81428061659E+01  0.13907611633E+02  0.17130023522E+02  0.51100000000E-03 0.  1.
         11    1    3    3    0    0 -0.58060961073E+01  0.81428061659E+01  0.14346607132E+02  0.17488315548E+02  0.51100000000E-03 0. -1.
<mgrwt>
<rscale>  0 0.20003213E+02</rscale>
<asrwt>0</asrwt>
<pdfrwt beam="2">  1        4 0.48954774E-03 0.20003213E+02</pdfrwt>
<pdfrwt beam="1">  1       -4 0.48363503E-02 0.20003213E+02</pdfrwt>
<totfact> 0.12216853E+06</totfact>
</mgrwt>
</event>
<event>
 4    1  0.1154861E-006  0.2001295E+02  0.7818608E-02  0.1745071E+00
          4   -1    0    0  501    0  0.00000000000E+00  0.00000000000E+00  0.68951240589E+01  0.70398249827E+01  0.14200000000E+01 0.  1.
         -4   -1    0    0    0  501 -0.00000000000E+00 -0.00000000000E+00 -0.14190487525E+02  0.14261358147E+02  0.14200000000E+01 0. -1.
        -11    1    1    2    0    0 -0.99722063875E+01 -0.75253762903E+00 -0.32815859515E+01  0.10525208774E+02  0.51100000000E-03 0.  1.
         11    1    1    2    0    0  0.99722063875E+01  0.75253762903E+00 -0.40137775146E+01  0.10775974356E+02  0.51100000000E-03 0. -1.
<mgrwt>
<rscale>  0 0.20012948E+02</rscale>
<asrwt>0</asrwt>
<pdfrwt beam="1">  1        4 0.10773707E-02 0.20012948E+02</pdfrwt>
<pdfrwt beam="2">  1       -4 0.21997344E-02 0.20012948E+02</pdfrwt>
<totfact> 0.12919949E+06</totfact>
</mgrwt>
</event>
<event>
 5    1  0.1154861E-006  0.2000034E+02  0.7818608E-02  0.1745321E+00
         -4   -1    0    0    0  501 -0.00000000000E+00  0.00000000000E+00  0.75823799308E+01  0.77142002447E+01  0.14200000000E+01 0.  1.
          4   -1    0    0  501    0  0.00000000000E+00 -0.00000000000E+00 -0.12904162936E+02  0.12982057660E+02  0.14200000000E+01 0. -1.
       1023    2    1    2    0    0  0.00000000000E+00  0.00000000000E+00 -0.53217830052E+01  0.20696257904E+02  0.20000342919E+02 0.  0.
        -11    1    3    3    0    0  0.22487145256E+01 -0.97439099962E+01 -0.26048792557E+01  0.10333726106E+02  0.51100000000E-03 0. -1.
         11    1    3    3    0    0 -0.22487145256E+01  0.97439099962E+01 -0.27169037495E+01  0.10362531799E+02  0.51100000000E-03 0.  1.
<mgrwt>
<rscale>  0 0.20000343E+02</rscale>
<asrwt>0</asrwt>
<pdfrwt beam="2">  1        4 0.20013878E-02 0.20000343E+02</pdfrwt>
<pdfrwt beam="1">  1       -4 0.11826519E-02 0.20000343E+02</pdfrwt>
<totfact> 0.12972268E+06</totfact>
</mgrwt>
</event>
<event>
 5    1  0.1154861E-006  0.2000080E+02  0.7818608E-02  0.1745312E+00
         -4   -1    0    0    0  501 -0.00000000000E+00  0.00000000000E+00  0.10834740032E+01  0.17861455471E+01  0.14200000000E+01 0. -1.
          4   -1    0    0  501    0  0.00000000000E+00 -0.00000000000E+00 -0.68989465382E+02  0.69004077660E+02  0.14200000000E+01 0.  1.
       1023    2    1    2    0    0  0.00000000000E+00  0.00000000000E+00 -0.67905991379E+02  0.70790223207E+02  0.20000800898E+02 0.  0.
        -11    1    3    3    0    0  0.25748763821E+01 -0.96632199541E+01 -0.33902864576E+02  0.35347023000E+02  0.51100000000E-03 0.  1.
         11    1    3    3    0    0 -0.25748763821E+01  0.96632199541E+01 -0.34003126803E+02  0.35443200207E+02  0.51100000000E-03 0. -1.
<mgrwt>
<rscale>  0 0.20000801E+02</rscale>
<asrwt>0</asrwt>
<pdfrwt beam="2">  1        4 0.10668937E-01 0.20000801E+02</pdfrwt>
<pdfrwt beam="1">  1       -4 0.22186404E-03 0.20000801E+02</pdfrwt>
<totfact> 0.10722130E+06</totfact>
</mgrwt>
</event>
<event>
 5    1  0.1154861E-006  0.2000052E+02  0.7818608E-02  0.1745318E+00
          4   -1    0    0  501    0  0.00000000000E+00  0.00000000000E+00  0.19046994043E+01  0.23757693113E+01  0.14200000000E+01 0.  1.
         -4   -1    0    0    0  501 -0.00000000000E+00 -0.00000000000E+00 -0.46243111220E+02  0.46264908249E+02  0.14200000000E+01 0. -1.
       1023    2    1    2    0    0  0.00000000000E+00  0.00000000000E+00 -0.44338411816E+02  0.48640677560E+02  0.20000518773E+02 0.  0.
        -11    1    3    3    0    0  0.74337403917E+01  0.66891025164E+01 -0.22109691859E+02  0.24266088747E+02  0.51100000000E-03 0.  1.
         11    1    3    3    0    0 -0.74337403917E+01 -0.66891025164E+01 -0.22228719956E+02  0.24374588814E+02  0.51100000000E-03 0. -1.
<mgrwt>
<rscale>  0 0.20000519E+02</rscale>
<asrwt>0</asrwt>
<pdfrwt beam="1">  1        4 0.33094355E-03 0.20000519E+02</pdfrwt>
<pdfrwt beam="2">  1       -4 0.71522369E-02 0.20000519E+02</pdfrwt>
<totfact> 0.11577161E+06</totfact>
</mgrwt>
</event>
<event>
 5    1  0.1154861E-006  0.2000030E+02  0.7818608E-02  0.1745322E+00
         -4   -1    0    0    0  501 -0.00000000000E+00  0.00000000000E+00  0.74889424496E+01  0.76223788290E+01  0.14200000000E+01 0. -1.
          4   -1    0    0  501    0  0.00000000000E+00 -0.00000000000E+00 -0.13063260875E+02  0.13140212505E+02  0.14200000000E+01 0.  1.
       1023    2    1    2    0    0  0.00000000000E+00  0.00000000000E+00 -0.55743184255E+01  0.20762591335E+02  0.20000304323E+02 0.  0.
        -11    1    3    3    0    0  0.97777559303E+01  0.20972309107E+01 -0.27742570545E+01  0.10377831710E+02  0.51100000000E-03 0. -1.
         11    1    3    3    0    0 -0.97777559303E+01 -0.20972309107E+01 -0.28000613710E+01  0.10384759625E+02  0.51100000000E-03 0.  1.
<mgrwt>
<rscale>  0 0.20000304E+02</rscale>
<asrwt>0</asrwt>
<pdfrwt beam="2">  1        4 0.20259161E-02 0.20000304E+02</pdfrwt>
<pdfrwt beam="1">  1       -4 0.11683287E-02 0.20000304E+02</pdfrwt>
<totfact> 0.12968391E+06</totfact>
</mgrwt>
</event>
<event>
 4    1  0.1154861E-006  0.2002241E+02  0.7818608E-02  0.1744883E+00
         -4   -1    0    0    0  501 -0.00000000000E+00  0.00000000000E+00  0.20011905186E+02  0.20062221940E+02  0.14200000000E+01 0.  1.
          4   -1    0    0  501    0  0.00000000000E+00 -0.00000000000E+00 -0.48496894887E+01  0.50533046749E+01  0.14200000000E+01 0. -1.
        -11    1    1    2    0    0  0.80204245766E+01  0.59795860222E+01  0.71091518843E+01  0.12272844013E+02  0.51100000000E-03 0.  1.
         11    1    1    2    0    0 -0.80204245766E+01 -0.59795860222E+01  0.80530638133E+01  0.12842682602E+02  0.51100000000E-03 0. -1.
<mgrwt>
<rscale>  0 0.20022410E+02</rscale>
<asrwt>0</asrwt>
<pdfrwt beam="2">  1        4 0.76563930E-03 0.20022410E+02</pdfrwt>
<pdfrwt beam="1">  1       -4 0.30982879E-02 0.20022410E+02</pdfrwt>
<totfact> 0.12690178E+06</totfact>
</mgrwt>
</event>
<event>
 5    1  0.1154861E-006  0.2000022E+02  0.7818608E-02  0.1745324E+00
          4   -1    0    0  501    0  0.00000000000E+00  0.00000000000E+00  0.23651592826E+02  0.23694181632E+02  0.14200000000E+01 0. -1.
         -4   -1    0    0    0  501 -0.00000000000E+00 -0.00000000000E+00 -0.40610872071E+01  0.43021888968E+01  0.14200000000E+01 0.  1.
       1023    2    1    2    0    0  0.00000000000E+00  0.00000000000E+00  0.19590505619E+02  0.27996370529E+02  0.20000221308E+02 0.  0.
        -11    1    3    3    0    0 -0.99933301456E+01  0.36791159590E+00  0.98153677297E+01  0.14012260712E+02  0.51100000000E-03 0. -1.
         11    1    3    3    0    0  0.99933301456E+01 -0.36791159590E+00  0.97751378890E+01  0.13984109816E+02  0.51100000000E-03 0.  1.
<mgrwt>
<rscale>  0 0.20000221E+02</rscale>
<asrwt>0</asrwt>
<pdfrwt beam="1">  1        4 0.36605288E-02 0.20000221E+02</pdfrwt>
<pdfrwt beam="2">  1       -4 0.64660501E-03 0.20000221E+02</pdfrwt>
<totfact> 0.12561462E+06</totfact>
</mgrwt>
</event>
<event>
 5    1  0.1198174E-006  0.2000130E+02  0.7818608E-02  0.1745302E+00
         -4   -1    0    0    0  501 -0.00000000000E+00  0.00000000000E+00  0.17368055416E+02  0.17426007831E+02  0.14200000000E+01 0.  1.
          4   -1    0    0  501    0  0.00000000000E+00 -0.00000000000E+00 -0.56021713707E+01  0.57793359537E+01  0.14200000000E+01 0. -1.
       1023    2    1    2    0    0  0.00000000000E+00  0.00000000000E+00  0.11765884045E+02  0.23205343785E+02  0.20001298778E+02 0.  0.
        -11    1    3    3    0    0  0.45732069767E+01 -0.88934032360E+01  0.59738878225E+01  0.11648784449E+02  0.51100000000E-03 0. -1.
         11    1    3    3    0    0 -0.45732069767E+01  0.88934032360E+01  0.57919962227E+01  0.11556559335E+02  0.51100000000E-03 0.  1.
<mgrwt>
<rscale>  0 0.20001299E+02</rscale>
<asrwt>0</asrwt>
<pdfrwt beam="2">  1        4 0.87995844E-03 0.20001299E+02</pdfrwt>
<pdfrwt beam="1">  1       -4 0.26900945E-02 0.20001299E+02</pdfrwt>
<totfact> 0.12825145E+06</totfact>
</mgrwt>
</event>
<event>
 5    1  0.1154861E-006  0.2001112E+02  0.7818608E-02  0.1745107E+00
          4   -1    0    0  501    0  0.00000000000E+00  0.00000000000E+00  0.57039601517E+02  0.57057274218E+02  0.14200000000E+01 0.  1.
         -4   -1    0    0    0  501 -0.00000000000E+00 -0.00000000000E+00 -0.14469373437E+01  0.20273203192E+01  0.14200000000E+01 0. -1.
       1023    2    1    2    0    0  0.00000000000E+00  0.00000000000E+00  0.55592664173E+02  0.59084594537E+02  0.20011121952E+02 0.  0.
        -11    1    3    3    0    0 -0.96710665266E+01  0.25529688194E+01  0.27048956204E+02  0.28839091691E+02  0.51100000000E-03 0. -1.
         11    1    3    3    0    0  0.96710665266E+01 -0.25529688194E+01  0.28543707969E+02  0.30245502847E+02  0.51100000000E-03 0.  1.
<mgrwt>
<rscale>  0 0.20011122E+02</rscale>
<asrwt>0</asrwt>
<pdfrwt beam="1">  1        4 0.88213279E-02 0.20011122E+02</pdfrwt>
<pdfrwt beam="2">  1       -4 0.26861002E-03 0.20011122E+02</pdfrwt>
<totfact> 0.11141642E+06</totfact>
</mgrwt>
</event>
<event>
 5    1  0.1208349E-006  0.2000104E+02  0.7818608E-02  0.1745307E+00
          4   -1    0    0  501    0  0.00000000000E+00  0.00000000000E+00  0.89609386734E+01  0.90727516172E+01  0.14200000000E+01 0.  1.
         -4   -1    0    0    0  501 -0.00000000000E+00 -0.00000000000E+00 -0.10933492545E+02  0.11025319008E+02  0.14200000000E+01 0. -1.
       1023    2    1    2    0    0  0.00000000000E+00  0.00000000000E+00 -0.19725538714E+01  0.20098070625E+02  0.20001036825E+02 0.  0.
        -11    1    3    3    0    0 -0.73958188733E+01 -0.67310752934E+01 -0.91624775587E+00  0.10042162199E+02  0.51100000000E-03 0. -1.
         11    1    3    3    0    0  0.73958188733E+01  0.67310752934E+01 -0.10563061156E+01  0.10055908427E+02  0.51100000000E-03 0.  1.
<mgrwt>
<rscale>  0 0.20001037E+02</rscale>
<asrwt>0</asrwt>
<pdfrwt beam="1">  1        4 0.13942705E-02 0.20001037E+02</pdfrwt>
<pdfrwt beam="2">  1       -4 0.16977404E-02 0.20001037E+02</pdfrwt>
<totfact> 0.13006850E+06</totfact>
</mgrwt>
</event>
<event>
 4    1  0.1154861E-006  0.2001454E+02  0.7818608E-02  0.1745039E+00
          4   -1    0    0  501    0  0.00000000000E+00  0.00000000000E+00  0.22395391358E+02  0.22440364392E+02  0.14200000000E+01 0. -1.
         -4   -1    0    0    0  501 -0.00000000000E+00 -0.00000000000E+00 -0.43081297430E+01  0.45361196944E+01  0.14200000000E+01 0.  1.
        -11    1    1    2    0    0 -0.48734114855E+00  0.99922521915E+01  0.93814258456E+01  0.13714727719E+02  0.51100000000E-03 0.  1.
         11    1    1    2    0    0  0.48734114855E+00 -0.99922521915E+01  0.87058357690E+01  0.13261756368E+02  0.51100000000E-03 0. -1.
<mgrwt>
<rscale>  0 0.20014536E+02</rscale>
<asrwt>0</asrwt>
<pdfrwt beam="1">  1        4 0.34664420E-02 0.20014536E+02</pdfrwt>
<pdfrwt beam="2">  1       -4 0.68378633E-03 0.20014536E+02</pdfrwt>
<totfact> 0.12598134E+06</totfact>
</mgrwt>
</event>
<event>
 5    1  0.1209354E-006  0.2000077E+02  0.7818608E-02  0.1745313E+00
          4   -1    0    0  501    0  0.00000000000E+00  0.00000000000E+00  0.80651182216E+01  0.81891716265E+01  0.14200000000E+01 0. -1.
         -4   -1    0    0    0  501 -0.00000000000E+00 -0.00000000000E+00 -0.12139633096E+02  0.12222401225E+02  0.14200000000E+01 0.  1.
       1023    2    1    2    0    0  0.00000000000E+00  0.00000000000E+00 -0.40745148743E+01  0.20411572851E+02  0.20000765855E+02 0.  0.
        -11    1    3    3    0    0  0.88544304658E+01  0.46474899341E+01 -0.21259732561E+01  0.10223495689E+02  0.51100000000E-03 0.  1.
         11    1    3    3    0    0 -0.88544304658E+01 -0.46474899341E+01 -0.19485416182E+01  0.10188077162E+02  0.51100000000E-03 0. -1.
<mgrwt>
<rscale>  0 0.20000766E+02</rscale>
<asrwt>0</asrwt>
<pdfrwt beam="1">  1        4 0.12566968E-02 0.20000766E+02</pdfrwt>
<pdfrwt beam="2">  1       -4 0.18835452E-02 0.20000766E+02</pdfrwt>
<totfact> 0.12988547E+06</totfact>
</mgrwt>
</event>
<event>
 5    1  0.1154861E-006  0.2000082E+02  0.7818608E-02  0.1745312E+00
          4   -1    0    0  501    0  0.00000000000E+00  0.00000000000E+00  0.45471281363E+00  0.14910277472E+01  0.14200000000E+01 0.  1.
         -4   -1    0    0    0  501 -0.00000000000E+00 -0.00000000000E+00 -0.10175318292E+03  0.10176309073E+03  0.14200000000E+01 0. -1.
       1023    2    1    2    0    0  0.00000000000E+00  0.00000000000E+00 -0.10129847011E+03  0.10325411847E+03  0.20000823384E+02 0.  0.
        -11    1    3    3    0    0  0.30232700280E+01 -0.95322824620E+01 -0.50336780608E+02  0.51320522725E+02  0.51100000000E-03 0.  1.
         11    1    3    3    0    0 -0.30232700280E+01  0.95322824620E+01 -0.50961689498E+02  0.51933595748E+02  0.51100000000E-03 0. -1.
<mgrwt>
<rscale>  0 0.20000823E+02</rscale>
<asrwt>0</asrwt>
<pdfrwt beam="1">  1        4 0.15043457E-03 0.20000823E+02</pdfrwt>
<pdfrwt beam="2">  1       -4 0.15734806E-01 0.20000823E+02</pdfrwt>
<totfact> 0.97087635E+05</totfact>
</mgrwt>
</event>
<event>
 5    1  0.1154861E-006  0.2000043E+02  0.7818608E-02  0.1745320E+00
         -4   -1    0    0    0  501 -0.00000000000E+00  0.00000000000E+00  0.39364521584E+02  0.39390125153E+02  0.14200000000E+01 0. -1.
          4   -1    0    0  501    0  0.00000000000E+00 -0.00000000000E+00 -0.23134530497E+01  0.27144916676E+01  0.14200000000E+01 0.  1.
       1023    2    1    2    0    0  0.00000000000E+00  0.00000000000E+00  0.37051068534E+02  0.42104616820E+02  0.20000426946E+02 0.  0.
        -11    1    3    3    0    0 -0.99770627373E+01  0.67697425032E+00  0.18389196052E+02  0.20932334001E+02  0.51100000000E-03 0. -1.
         11    1    3    3    0    0  0.99770627373E+01 -0.67697425032E+00  0.18661872482E+02  0.21172282820E+02  0.51100000000E-03 0.  1.
<mgrwt>
<rscale>  0 0.20000427E+02</rscale>
<asrwt>0</asrwt>
<pdfrwt beam="2">  1        4 0.38873447E-03 0.20000427E+02</pdfrwt>
<pdfrwt beam="1">  1       -4 0.60888992E-02 0.20000427E+02</pdfrwt>
<totfact> 0.11865249E+06</totfact>
</mgrwt>
</event>
<event>
 5    1  0.1193957E-006  0.2000086E+02  0.7818608E-02  0.1745311E+00
          4   -1    0    0  501    0  0.00000000000E+00  0.00000000000E+00  0.38095829894E+01  0.40656269570E+01  0.14200000000E+01 0.  1.
         -4   -1    0    0    0  501 -0.00000000000E+00 -0.00000000000E+00 -0.25121583686E+02  0.25161684500E+02  0.14200000000E+01 0. -1.
       1023    2    1    2    0    0  0.00000000000E+00  0.00000000000E+00 -0.21312000697E+02  0.29227311457E+02  0.20000859015E+02 0.  0.
        -11    1    3    3    0    0 -0.29617404196E+01 -0.95516656531E+01 -0.10584905153E+02  0.14561814462E+02  0.51100000000E-03 0. -1.
         11    1    3    3    0    0  0.29617404196E+01  0.95516656531E+01 -0.10727095544E+02  0.14665496996E+02  0.51100000000E-03 0.  1.
<mgrwt>
<rscale>  0 0.20000859E+02</rscale>
<asrwt>0</asrwt>
<pdfrwt beam="1">  1        4 0.60887007E-03 0.20000859E+02</pdfrwt>
<pdfrwt beam="2">  1       -4 0.38876393E-02 0.20000859E+02</pdfrwt>
<totfact> 0.12495206E+06</totfact>
</mgrwt>
</event>
<event>
 5    1  0.1154861E-006  0.2000070E+02  0.7818608E-02  0.1745314E+00
          4   -1    0    0  501    0  0.00000000000E+00  0.00000000000E+00  0.46498239832E+02  0.46519917320E+02  0.14200000000E+01 0.  1.
         -4   -1    0    0    0  501 -0.00000000000E+00 -0.00000000000E+00 -0.18917055783E+01  0.23653646643E+01  0.14200000000E+01 0. -1.
       1023    2    1    2    0    0  0.00000000000E+00  0.00000000000E+00  0.44606534254E+02  0.48885281984E+02  0.20000697402E+02 0.  0.
        -11    1    3    3    0    0  0.94667299066E+01  0.32228021562E+01  0.22399339749E+02  0.24530304733E+02  0.51100000000E-03 0.  1.
         11    1    3    3    0    0 -0.94667299066E+01 -0.32228021562E+01  0.22207194505E+02  0.24354977251E+02  0.51100000000E-03 0. -1.
<mgrwt>
<rscale>  0 0.20000697E+02</rscale>
<asrwt>0</asrwt>
<pdfrwt beam="1">  1        4 0.71916784E-02 0.20000697E+02</pdfrwt>
<pdfrwt beam="2">  1       -4 0.32913443E-03 0.20000697E+02</pdfrwt>
<totfact> 0.11566540E+06</totfact>
</mgrwt>
</event>
<event>
 5    1  0.1154861E-006  0.2000068E+02  0.7818608E-02  0.1745315E+00
         -4   -1    0    0    0  501 -0.00000000000E+00  0.00000000000E+00  0.38360408368E+02  0.38386681677E+02  0.14200000000E+01 0. -1.
          4   -1    0    0  501    0  0.00000000000E+00 -0.00000000000E+00 -0.23843957740E+01  0.27752014715E+01  0.14200000000E+01 0.  1.
       1023    2    1    2    0    0  0.00000000000E+00  0.00000000000E+00  0.35976012594E+02  0.41161883148E+02  0.20000678542E+02 0.  0.
        -11    1    3    3    0    0  0.99928012054E+01  0.38692830679E+00  0.18052950956E+02  0.20637704037E+02  0.51100000000E-03 0.  1.
         11    1    3    3    0    0 -0.99928012054E+01 -0.38692830679E+00  0.17923061638E+02  0.20524179111E+02  0.51100000000E-03 0. -1.
<mgrwt>
<rscale>  0 0.20000679E+02</rscale>
<asrwt>0</asrwt>
<pdfrwt beam="2">  1        4 0.39891314E-03 0.20000679E+02</pdfrwt>
<pdfrwt beam="1">  1       -4 0.59336840E-02 0.20000679E+02</pdfrwt>
<totfact> 0.11908054E+06</totfact>
</mgrwt>
</event>
<event>
 5    1  0.1154861E-006  0.2000104E+02  0.7818608E-02  0.1745307E+00
          4   -1    0    0  501    0  0.00000000000E+00  0.00000000000E+00  0.10751653590E+01  0.17811177808E+01  0.14200000000E+01 0. -1.
         -4   -1    0    0    0  501 -0.00000000000E+00 -0.00000000000E+00 -0.69313296493E+02  0.69327840517E+02  0.14200000000E+01 0.  1.
       1023    2    1    2    0    0  0.00000000000E+00  0.00000000000E+00 -0.68238131134E+02  0.71108958298E+02  0.20001035211E+02 0.  0.
        -11    1    3    3    0    0  0.71168556724E+01 -0.70252746787E+01 -0.34399754638E+02  0.35823836176E+02  0.51100000000E-03 0. -1.
         11    1    3    3    0    0 -0.71168556724E+01  0.70252746787E+01 -0.33838376496E+02  0.35285122122E+02  0.51100000000E-03 0.  1.
<mgrwt>
<rscale>  0 0.20001035E+02</rscale>
<asrwt>0</asrwt>
<pdfrwt beam="1">  1        4 0.22083291E-03 0.20001035E+02</pdfrwt>
<pdfrwt beam="2">  1       -4 0.10719004E-01 0.20001035E+02</pdfrwt>
<totfact> 0.10710712E+06</totfact>
</mgrwt>
</event>
<event>
 5    1  0.1154861E-006  0.2000229E+02  0.7818608E-02  0.1745283E+00
          4   -1    0    0  501    0  0.00000000000E+00  0.00000000000E+00  0.12157386581E+01  0.18693369105E+01  0.14200000000E+01 0.  1.
         -4   -1    0    0    0  501 -0.00000000000E+00 -0.00000000000E+00 -0.64179963167E+02  0.64195670197E+02  0.14200000000E+01 0. -1.
       1023    2    1    2    0    0  0.00000000000E+00  0.00000000000E+00 -0.62964224508E+02  0.66065007108E+02  0.20002289774E+02 0.  0.
        -11    1    3    3    0    0  0.60236397907E+01 -0.79825303696E+01 -0.31923652737E+02  0.33453320191E+02  0.51100000000E-03 0. -1.
         11    1    3    3    0    0 -0.60236397907E+01  0.79825303696E+01 -0.31040571771E+02  0.32611686917E+02  0.51100000000E-03 0.  1.
<mgrwt>
<rscale>  0 0.20002290E+02</rscale>
<asrwt>0</asrwt>
<pdfrwt beam="1">  1        4 0.23852179E-03 0.20002290E+02</pdfrwt>
<pdfrwt beam="2">  1       -4 0.99253234E-02 0.20002290E+02</pdfrwt>
<totfact> 0.10889461E+06</totfact>
</mgrwt>
</event>
<event>
 5    1  0.1154861E-006  0.2000147E+02  0.7818608E-02  0.1745299E+00
         -4   -1    0    0    0  501 -0.00000000000E+00  0.00000000000E+00  0.30370713167E+01  0.33526410757E+01  0.14200000000E+01 0.  1.
          4   -1    0    0  501    0  0.00000000000E+00 -0.00000000000E+00 -0.30972279973E+02  0.31004814573E+02  0.14200000000E+01 0. -1.
       1023    2    1    2    0    0  0.00000000000E+00  0.00000000000E+00 -0.27935208656E+02  0.34357455649E+02  0.20001471846E+02 0.  0.
        -11    1    3    3    0    0  0.28067359317E+01  0.95987695160E+01 -0.14008827652E+02  0.17212245503E+02  0.51100000000E-03 0. -1.
         11    1    3    3    0    0 -0.28067359317E+01 -0.95987695160E+01 -0.13926381004E+02  0.17145210146E+02  0.51100000000E-03 0.  1.
<mgrwt>
<rscale>  0 0.20001472E+02</rscale>
<asrwt>0</asrwt>
<pdfrwt beam="2">  1        4 0.47917432E-02 0.20001472E+02</pdfrwt>
<pdfrwt beam="1">  1       -4 0.49401902E-03 0.20001472E+02</pdfrwt>
<totfact> 0.12231939E+06</totfact>
</mgrwt>
</event>
<event>
 4    1  0.1322213E-006  0.2029674E+02  0.7818608E-02  0.1739491E+00
         -4   -1    0    0    0  501 -0.00000000000E+00  0.00000000000E+00  0.32692950332E+01  0.35643639004E+01  0.14200000000E+01 0.  1.
          4   -1    0    0  501    0  0.00000000000E+00 -0.00000000000E+00 -0.29829105055E+02  0.29862885132E+02  0.14200000000E+01 0. -1.
        -11    1    1    2    0    0  0.64829856659E+01 -0.77006816277E+01 -0.15401673199E+02  0.18399487446E+02  0.51100000000E-03 0.  1.
         11    1    1    2    0    0 -0.64829856659E+01  0.77006816277E+01 -0.11158136823E+02  0.15027761586E+02  0.51100000000E-03 0. -1.
<mgrwt>
<rscale>  0 0.20296735E+02</rscale>
<asrwt>0</asrwt>
<pdfrwt beam="2">  1        4 0.46143890E-02 0.20296735E+02</pdfrwt>
<pdfrwt beam="1">  1       -4 0.52826456E-03 0.20296735E+02</pdfrwt>
<totfact> 0.11917569E+06</totfact>
</mgrwt>
</event>
<event>
 5    1  0.1154861E-006  0.2000056E+02  0.7818608E-02  0.1745317E+00
         -4   -1    0    0    0  501 -0.00000000000E+00  0.00000000000E+00  0.91568774005E+00  0.16896402094E+01  0.14200000000E+01 0. -1.
          4   -1    0    0  501    0  0.00000000000E+00 -0.00000000000E+00 -0.75987523608E+02  0.76000790417E+02  0.14200000000E+01 0.  1.
       1023    2    1    2    0    0  0.00000000000E+00  0.00000000000E+00 -0.75071835867E+02  0.77690430626E+02  0.20000561752E+02 0.  0.
        -11    1    3    3    0    0 -0.33839818417E+01 -0.94102274155E+01 -0.37705423556E+02  0.39009007664E+02  0.51100000000E-03 0.  1.
         11    1    3    3    0    0  0.33839818417E+01  0.94102274155E+01 -0.37366412311E+02  0.38681422963E+02  0.51100000000E-03 0. -1.
<mgrwt>
<rscale>  0 0.20000562E+02</rscale>
<asrwt>0</asrwt>
<pdfrwt beam="2">  1        4 0.11750940E-01 0.20000562E+02</pdfrwt>
<pdfrwt beam="1">  1       -4 0.20143043E-03 0.20000562E+02</pdfrwt>
<totfact> 0.10486719E+06</totfact>
</mgrwt>
</event>
<event>
 5    1  0.1154861E-006  0.2001124E+02  0.7818608E-02  0.1745105E+00
          4   -1    0    0  501    0  0.00000000000E+00  0.00000000000E+00  0.33462722875E+01  0.36350981035E+01  0.14200000000E+01 0. -1.
         -4   -1    0    0    0  501 -0.00000000000E+00 -0.00000000000E+00 -0.28372559944E+02  0.28408072054E+02  0.14200000000E+01 0.  1.
       1023    2    1    2    0    0  0.00000000000E+00  0.00000000000E+00 -0.25026287657E+02  0.32043170157E+02  0.20011238838E+02 0.  0.
        -11    1    3    3    0    0 -0.61146108763E+01  0.79158047964E+01 -0.12108091990E+02  0.15705232365E+02  0.51100000000E-03 0. -1.
         11    1    3    3    0    0  0.61146108763E+01 -0.79158047964E+01 -0.12918195666E+02  0.16337937792E+02  0.51100000000E-03 0.  1.
<mgrwt>
<rscale>  0 0.20011239E+02</rscale>
<asrwt>0</asrwt>
<pdfrwt beam="1">  1        4 0.53976021E-03 0.20011239E+02</pdfrwt>
<pdfrwt beam="2">  1       -4 0.43899581E-02 0.20011239E+02</pdfrwt>
<totfact> 0.12336181E+06</totfact>
</mgrwt>
</event>
<event>
 5    1  0.1154861E-006  0.2000060E+02  0.7818608E-02  0.1745316E+00
         -4   -1    0    0    0  501 -0.00000000000E+00  0.00000000000E+00  0.44499945589E+02  0.44522596032E+02  0.14200000000E+01 0.  1.
          4   -1    0    0  501    0  0.00000000000E+00 -0.00000000000E+00 -0.19973887511E+01  0.24507063926E+01  0.14200000000E+01 0. -1.
       1023    2    1    2    0    0  0.00000000000E+00  0.00000000000E+00  0.42502556838E+02  0.46973302425E+02  0.20000595064E+02 0.  0.
        -11    1    3    3    0    0 -0.79088586789E+01 -0.61200905132E+01  0.21204484506E+02  0.23444310972E+02  0.51100000000E-03 0. -1.
         11    1    3    3    0    0  0.79088586789E+01  0.61200905132E+01  0.21298072332E+02  0.23528991453E+02  0.51100000000E-03 0.  1.
<mgrwt>
<rscale>  0 0.20000595E+02</rscale>
<asrwt>0</asrwt>
<pdfrwt beam="2">  1        4 0.34390351E-03 0.20000595E+02</pdfrwt>
<pdfrwt beam="1">  1       -4 0.68827583E-02 0.20000595E+02</pdfrwt>
<totfact> 0.11648726E+06</totfact>
</mgrwt>
</event>
<event>
 5    1  0.1154861E-006  0.2000141E+02  0.7818608E-02  0.1745300E+00
         -4   -1    0    0    0  501 -0.00000000000E+00  0.00000000000E+00  0.50203719349E+02  0.50223797511E+02  0.14200000000E+01 0. -1.
          4   -1    0    0  501    0  0.00000000000E+00 -0.00000000000E+00 -0.17159614931E+01  0.22273131450E+01  0.14200000000E+01 0.  1.
       1023    2    1    2    0    0  0.00000000000E+00  0.00000000000E+00  0.48487757855E+02  0.52451110656E+02  0.20001408630E+02 0.  0.
        -11    1    3    3    0    0  0.98276043963E+01 -0.18491599725E+01  0.23946199228E+02  0.25950369140E+02  0.51100000000E-03 0. -1.
         11    1    3    3    0    0 -0.98276043963E+01  0.18491599725E+01  0.24541558628E+02  0.26500741516E+02  0.51100000000E-03 0.  1.
<mgrwt>
<rscale>  0 0.20001409E+02</rscale>
<asrwt>0</asrwt>
<pdfrwt beam="2">  1        4 0.30487329E-03 0.20001409E+02</pdfrwt>
<pdfrwt beam="1">  1       -4 0.77645284E-02 0.20001409E+02</pdfrwt>
<totfact> 0.11416729E+06</totfact>
</mgrwt>
</event>
<event>
 5    1  0.1154861E-006  0.2000098E+02  0.7818608E-02  0.1745309E+00
          4   -1    0    0  501    0  0.00000000000E+00  0.00000000000E+00  0.65587747290E+02  0.65603117262E+02  0.14200000000E+01 0.  1.
         -4   -1    0    0    0  501 -0.00000000000E+00 -0.00000000000E+00 -0.11752274504E+01  0.18432470155E+01  0.14200000000E+01 0. -1.
       1023    2    1    2    0    0  0.00000000000E+00  0.00000000000E+00  0.64412519839E+02  0.67446364278E+02  0.20000983532E+02 0.  0.
        -11    1    3    3    0    0  0.45038556272E+01  0.89287975714E+01  0.32067479493E+02  0.33590644276E+02  0.51100000000E-03 0.  1.
         11    1    3    3    0    0 -0.45038556272E+01 -0.89287975714E+01  0.32345040347E+02  0.33855720002E+02  0.51100000000E-03 0. -1.
<mgrwt>
<rscale>  0 0.20000984E+02</rscale>
<asrwt>0</asrwt>
<pdfrwt beam="1">  1        4 0.10142994E-01 0.20000984E+02</pdfrwt>
<pdfrwt beam="2">  1       -4 0.23337258E-03 0.20000984E+02</pdfrwt>
<totfact> 0.10840819E+06</totfact>
</mgrwt>
</event>
<event>
 5    1  0.1154861E-006  0.2000053E+02  0.7818608E-02  0.1745318E+00
         -4   -1    0    0    0  501 -0.00000000000E+00  0.00000000000E+00  0.63872553458E+02  0.63888336065E+02  0.14200000000E+01 0. -1.
          4   -1    0    0  501    0  0.00000000000E+00 -0.00000000000E+00 -0.12243915019E+01  0.18749758799E+01  0.14200000000E+01 0.  1.
       1023    2    1    2    0    0  0.00000000000E+00  0.00000000000E+00  0.62648161956E+02  0.65763311945E+02  0.20000525032E+02 0.  0.
        -11    1    3    3    0    0 -0.36542588592E+01 -0.93085135894E+01  0.31510578506E+02  0.33059319278E+02  0.51100000000E-03 0. -1.
         11    1    3    3    0    0  0.36542588592E+01  0.93085135894E+01  0.31137583449E+02  0.32703992667E+02  0.51100000000E-03 0.  1.
<mgrwt>
<rscale>  0 0.20000525E+02</rscale>
<asrwt>0</asrwt>
<pdfrwt beam="2">  1        4 0.23962692E-03 0.20000525E+02</pdfrwt>
<pdfrwt beam="1">  1       -4 0.98778058E-02 0.20000525E+02</pdfrwt>
<totfact> 0.10902403E+06</totfact>
</mgrwt>
</event>
<event>
 5    1  0.1184588E-006  0.2000090E+02  0.7818608E-02  0.1745310E+00
          4   -1    0    0  501    0  0.00000000000E+00  0.00000000000E+00  0.95726071339E+01  0.96773553898E+01  0.14200000000E+01 0. -1.
         -4   -1    0    0    0  501 -0.00000000000E+00 -0.00000000000E+00 -0.10236537678E+02  0.10334558706E+02  0.14200000000E+01 0.  1.
       1023    2    1    2    0    0  0.00000000000E+00  0.00000000000E+00 -0.66393054443E+00  0.20011914095E+02  0.20000897530E+02 0.  0.
        -11    1    3    3    0    0  0.91657699477E+01 -0.39991777198E+01 -0.39691687855E+00  0.10008111932E+02  0.51100000000E-03 0.  1.
         11    1    3    3    0    0 -0.91657699477E+01  0.39991777198E+01 -0.26701366588E+00  0.10003802164E+02  0.51100000000E-03 0. -1.
<mgrwt>
<rscale>  0 0.20000898E+02</rscale>
<asrwt>0</asrwt>
<pdfrwt beam="1">  1        4 0.14883064E-02 0.20000898E+02</pdfrwt>
<pdfrwt beam="2">  1       -4 0.15904496E-02 0.20000898E+02</pdfrwt>
<totfact> 0.13012145E+06</totfact>
</mgrwt>
</event>
<event>
 5    1  0.1154861E-006  0.2000046E+02  0.7818608E-02  0.1745319E+00
          4   -1    0    0  501    0  0.00000000000E+00  0.00000000000E+00  0.90820631753E+00  0.16855974357E+01  0.14200000000E+01 0.  1.
         -4   -1    0    0    0  501 -0.00000000000E+00 -0.00000000000E+00 -0.76324383941E+02  0.76337592207E+02  0.14200000000E+01 0. -1.
       1023    2    1    2    0    0  0.00000000000E+00  0.00000000000E+00 -0.75416177623E+02  0.78023189643E+02  0.20000456862E+02 0.  0.
        -11    1    3    3    0    0 -0.95527473184E+01  0.29577661543E+01 -0.37843589080E+02  0.39142567579E+02  0.51100000000E-03 0.  1.
         11    1    3    3    0    0  0.95527473184E+01 -0.29577661543E+01 -0.37572588543E+02  0.38880622064E+02  0.51100000000E-03 0. -1.
<mgrwt>
<rscale>  0 0.20000457E+02</rscale>
<asrwt>0</asrwt>
<pdfrwt beam="1">  1        4 0.20053945E-03 0.20000457E+02</pdfrwt>
<pdfrwt beam="2">  1       -4 0.11803025E-01 0.20000457E+02</pdfrwt>
<totfact> 0.10475776E+06</totfact>
</mgrwt>
</event>
<event>
 5    1  0.1154861E-006  0.2000034E+02  0.7818608E-02  0.1745321E+00
         -4   -1    0    0    0  501 -0.00000000000E+00  0.00000000000E+00  0.29011621352E+02  0.29046352154E+02  0.14200000000E+01 0. -1.
          4   -1    0    0  501    0  0.00000000000E+00 -0.00000000000E+00 -0.32623045407E+01  0.35579531920E+01  0.14200000000E+01 0.  1.
       1023    2    1    2    0    0  0.00000000000E+00  0.00000000000E+00  0.25749316811E+02  0.32604305346E+02  0.20000335269E+02 0.  0.
        -11    1    3    3    0    0 -0.67506394704E+01 -0.73777217354E+01  0.12812771559E+02  0.16253277410E+02  0.51100000000E-03 0.  1.
         11    1    3    3    0    0  0.67506394704E+01  0.73777217354E+01  0.12936545252E+02  0.16351027936E+02  0.51100000000E-03 0. -1.
<mgrwt>
<rscale>  0 0.20000335E+02</rscale>
<asrwt>0</asrwt>
<pdfrwt beam="2">  1        4 0.52730682E-03 0.20000335E+02</pdfrwt>
<pdfrwt beam="1">  1       -4 0.44887401E-02 0.20000335E+02</pdfrwt>
<totfact> 0.12321295E+06</totfact>
</mgrwt>
</event>
<event>
 5    1  0.1154861E-006  0.2000231E+02  0.7818608E-02  0.1745282E+00
          4   -1    0    0  501    0  0.00000000000E+00  0.00000000000E+00  0.75676677675E+02  0.75689998969E+02  0.14200000000E+01 0. -1.
         -4   -1    0    0    0  501 -0.00000000000E+00 -0.00000000000E+00 -0.92292022853E+00  0.16935707095E+01  0.14200000000E+01 0.  1.
       1023    2    1    2    0    0  0.00000000000E+00  0.00000000000E+00  0.74753757446E+02  0.77383569678E+02  0.20002314962E+02 0.  0.
        -11    1    3    3    0    0 -0.97643322386E+01  0.21609852847E+01  0.36969113249E+02  0.38297876914E+02  0.51100000000E-03 0. -1.
         11    1    3    3    0    0  0.97643322386E+01 -0.21609852847E+01  0.37784644198E+02  0.39085692764E+02  0.51100000000E-03 0.  1.
<mgrwt>
<rscale>  0 0.20002315E+02</rscale>
<asrwt>0</asrwt>
<pdfrwt beam="1">  1        4 0.11702871E-01 0.20002315E+02</pdfrwt>
<pdfrwt beam="2">  1       -4 0.20229326E-03 0.20002315E+02</pdfrwt>
<totfact> 0.10495092E+06</totfact>
</mgrwt>
</event>
<event>
 5    1  0.1154861E-006  0.2000891E+02  0.7818608E-02  0.1745151E+00
         -4   -1    0    0    0  501 -0.00000000000E+00  0.00000000000E+00  0.14966628369E+01  0.20631043714E+01  0.14200000000E+01 0.  1.
          4   -1    0    0  501    0  0.00000000000E+00 -0.00000000000E+00 -0.55656581357E+02  0.55674693069E+02  0.14200000000E+01 0. -1.
       1023    2    1    2    0    0  0.00000000000E+00  0.00000000000E+00 -0.54159918520E+02  0.57737797441E+02  0.20008909995E+02 0.  0.
        -11    1    3    3    0    0 -0.42786756926E+01 -0.90404184987E+01 -0.27743568077E+02  0.29491385220E+02  0.51100000000E-03 0.  1.
         11    1    3    3    0    0  0.42786756926E+01  0.90404184987E+01 -0.26416350443E+02  0.28246412220E+02  0.51100000000E-03 0. -1.
<mgrwt>
<rscale>  0 0.20008910E+02</rscale>
<asrwt>0</asrwt>
<pdfrwt beam="2">  1        4 0.86075153E-02 0.20008910E+02</pdfrwt>
<pdfrwt beam="1">  1       -4 0.27522150E-03 0.20008910E+02</pdfrwt>
<totfact> 0.11196437E+06</totfact>
</mgrwt>
</event>
<event>
 5    1  0.1154861E-006  0.2000034E+02  0.7818608E-02  0.1745321E+00
          4   -1    0    0  501    0  0.00000000000E+00  0.00000000000E+00  0.11465575967E+02  0.11553174121E+02  0.14200000000E+01 0. -1.
         -4   -1    0    0    0  501 -0.00000000000E+00 -0.00000000000E+00 -0.85424325952E+01  0.86596509539E+01  0.14200000000E+01 0.  1.
       1023    2    1    2    0    0  0.00000000000E+00  0.00000000000E+00  0.29231433720E+01  0.20212825074E+02  0.20000338255E+02 0.  0.
        -11    1    3    3    0    0  0.50774776590E+01  0.86150668861E+01  0.15189684495E+01  0.10114713157E+02  0.51100000000E-03 0.  1.
         11    1    3    3    0    0 -0.50774776590E+01 -0.86150668861E+01  0.14041749225E+01  0.10098111918E+02  0.51100000000E-03 0. -1.
<mgrwt>
<rscale>  0 0.20000338E+02</rscale>
<asrwt>0</asrwt>
<pdfrwt beam="1">  1        4 0.17796899E-02 0.20000338E+02</pdfrwt>
<pdfrwt beam="2">  1       -4 0.13299755E-02 0.20000338E+02</pdfrwt>
<totfact> 0.13000929E+06</totfact>
</mgrwt>
</event>
<event>
 5    1  0.1156354E-006  0.2000232E+02  0.7818608E-02  0.1745282E+00
          4   -1    0    0  501    0  0.00000000000E+00  0.00000000000E+00  0.27201800059E+02  0.27238838567E+02  0.14200000000E+01 0. -1.
         -4   -1    0    0    0  501 -0.00000000000E+00 -0.00000000000E+00 -0.34988607135E+01  0.37760331424E+01  0.14200000000E+01 0.  1.
       1023    2    1    2    0    0  0.00000000000E+00  0.00000000000E+00  0.23702939346E+02  0.31014871709E+02  0.20002323203E+02 0.  0.
        -11    1    3    3    0    0  0.17253660111E+01  0.98511855564E+01  0.11817203369E+02  0.15481248027E+02  0.51100000000E-03 0.  1.
         11    1    3    3    0    0 -0.17253660111E+01 -0.98511855564E+01  0.11885735977E+02  0.15533623682E+02  0.51100000000E-03 0. -1.
<mgrwt>
<rscale>  0 0.20002323E+02</rscale>
<asrwt>0</asrwt>
<pdfrwt beam="1">  1        4 0.42090623E-02 0.20002323E+02</pdfrwt>
<pdfrwt beam="2">  1       -4 0.56245635E-03 0.20002323E+02</pdfrwt>
<totfact> 0.12400143E+06</totfact>
</mgrwt>
</event>
<event>
 5    1  0.1154861E-006  0.2000058E+02  0.7818608E-02  0.1745317E+00
         -4   -1    0    0    0  501 -0.00000000000E+00  0.00000000000E+00  0.77272885570E+02  0.77285931736E+02  0.14200000000E+01 0. -1.
          4   -1    0    0  501    0  0.00000000000E+00 -0.00000000000E+00 -0.88748071635E+00  0.16745214307E+01  0.14200000000E+01 0.  1.
       1023    2    1    2    0    0  0.00000000000E+00  0.00000000000E+00  0.76385404854E+02  0.78960453167E+02  0.20000577233E+02 0.  0.
        -11    1    3    3    0    0  0.92770922897E+01 -0.37333201828E+01  0.38431255852E+02  0.39711000334E+02  0.51100000000E-03 0.  1.
         11    1    3    3    0    0 -0.92770922897E+01  0.37333201828E+01  0.37954149002E+02  0.39249452833E+02  0.51100000000E-03 0. -1.
<mgrwt>
<rscale>  0 0.20000577E+02</rscale>
<asrwt>0</asrwt>
<pdfrwt beam="2">  1        4 0.19808068E-03 0.20000577E+02</pdfrwt>
<pdfrwt beam="1">  1       -4 0.11949679E-01 0.20000577E+02</pdfrwt>
<totfact> 0.10444668E+06</totfact>
</mgrwt>
</event>
<event>
 5    1  0.1169000E-006  0.2000111E+02  0.7818608E-02  0.1745306E+00
          4   -1    0    0  501    0  0.00000000000E+00  0.00000000000E+00  0.16727362075E+01  0.21941846823E+01  0.14200000000E+01 0.  1.
         -4   -1    0    0    0  501 -0.00000000000E+00 -0.00000000000E+00 -0.51193877092E+02  0.51213567067E+02  0.14200000000E+01 0. -1.
       1023    2    1    2    0    0  0.00000000000E+00  0.00000000000E+00 -0.49521140884E+02  0.53407751749E+02  0.20001113779E+02 0.  0.
        -11    1    3    3    0    0 -0.55058186022E+01  0.83484521206E+01 -0.24704143937E+02  0.26651555662E+02  0.51100000000E-03 0. -1.
         11    1    3    3    0    0  0.55058186022E+01 -0.83484521206E+01 -0.24816996947E+02  0.26756196087E+02  0.51100000000E-03 0.  1.
<mgrwt>
<rscale>  0 0.20001114E+02</rscale>
<asrwt>0</asrwt>
<pdfrwt beam="1">  1        4 0.29897011E-03 0.20001114E+02</pdfrwt>
<pdfrwt beam="2">  1       -4 0.79176061E-02 0.20001114E+02</pdfrwt>
<totfact> 0.11377960E+06</totfact>
</mgrwt>
</event>
<event>
 5    1  0.1154861E-006  0.2000080E+02  0.7818608E-02  0.1745312E+00
          4   -1    0    0  501    0  0.00000000000E+00  0.00000000000E+00  0.13776881825E+01  0.19784905176E+01  0.14200000000E+01 0. -1.
         -4   -1    0    0    0  501 -0.00000000000E+00 -0.00000000000E+00 -0.58985454926E+02  0.59002544800E+02  0.14200000000E+01 0.  1.
       1023    2    1    2    0    0  0.00000000000E+00  0.00000000000E+00 -0.57607766744E+02  0.60981035317E+02  0.20000796964E+02 0.  0.
        -11    1    3    3    0    0 -0.58527209263E+00  0.99829719070E+01 -0.29034032547E+02  0.30707935745E+02  0.51100000000E-03 0. -1.
         11    1    3    3    0    0  0.58527209263E+00 -0.99829719070E+01 -0.28573734197E+02  0.30273099572E+02  0.51100000000E-03 0.  1.
<mgrwt>
<rscale>  0 0.20000797E+02</rscale>
<asrwt>0</asrwt>
<pdfrwt beam="1">  1        4 0.25948224E-03 0.20000797E+02</pdfrwt>
<pdfrwt beam="2">  1       -4 0.91222140E-02 0.20000797E+02</pdfrwt>
<totfact> 0.11080461E+06</totfact>
</mgrwt>
</event>
<event>
 5    1  0.1199087E-006  0.2000130E+02  0.7818608E-02  0.1745302E+00
          4   -1    0    0  501    0  0.00000000000E+00  0.00000000000E+00  0.77770557525E+01  0.79056306628E+01  0.14200000000E+01 0. -1.
         -4   -1    0    0    0  501 -0.00000000000E+00 -0.00000000000E+00 -0.12585747510E+02  0.12665600672E+02  0.14200000000E+01 0.  1.
       1023    2    1    2    0    0  0.00000000000E+00  0.00000000000E+00 -0.48086917571E+01  0.20571231335E+02  0.20001301013E+02 0.  0.
        -11    1    3    3    0    0  0.84869819629E+01  0.52895118027E+01 -0.24785996295E+01  0.10302973082E+02  0.51100000000E-03 0. -1.
         11    1    3    3    0    0 -0.84869819629E+01 -0.52895118027E+01 -0.23300921276E+01  0.10268258252E+02  0.51100000000E-03 0.  1.
<mgrwt>
<rscale>  0 0.20001301E+02</rscale>
<asrwt>0</asrwt>
<pdfrwt beam="1">  1        4 0.12125030E-02 0.20001301E+02</pdfrwt>
<pdfrwt beam="2">  1       -4 0.19523018E-02 0.20001301E+02</pdfrwt>
<totfact> 0.12978384E+06</totfact>
</mgrwt>
</event>
<event>
 5    1  0.1154861E-006  0.2000628E+02  0.7818608E-02  0.1745203E+00
         -4   -1    0    0    0  501 -0.00000000000E+00  0.00000000000E+00  0.32509198546E+02  0.32540196528E+02  0.14200000000E+01 0. -1.
          4   -1    0    0  501    0  0.00000000000E+00 -0.00000000000E+00 -0.28799146873E+01  0.32109669270E+01  0.14200000000E+01 0.  1.
       1023    2    1    2    0    0  0.00000000000E+00  0.00000000000E+00  0.29629283858E+02  0.35751163455E+02  0.20006279675E+02 0.  0.
        -11    1    3    3    0    0 -0.74525671230E+01  0.66723684912E+01  0.14744325481E+02  0.17817305973E+02  0.51100000000E-03 0.  1.
         11    1    3    3    0    0  0.74525671230E+01 -0.66723684912E+01  0.14884958378E+02  0.17933857482E+02  0.51100000000E-03 0. -1.
<mgrwt>
<rscale>  0 0.20006280E+02</rscale>
<asrwt>0</asrwt>
<pdfrwt beam="2">  1        4 0.47091381E-03 0.20006280E+02</pdfrwt>
<pdfrwt beam="1">  1       -4 0.50292653E-02 0.20006280E+02</pdfrwt>
<totfact> 0.12157404E+06</totfact>
</mgrwt>
</event>
<event>
 5    1  0.1154861E-006  0.2000036E+02  0.7818608E-02  0.1745321E+00
          4   -1    0    0  501    0  0.00000000000E+00  0.00000000000E+00  0.42335613975E+00  0.14817659805E+01  0.14200000000E+01 0.  1.
         -4   -1    0    0    0  501 -0.00000000000E+00 -0.00000000000E+00 -0.10391797050E+03  0.10392767193E+03  0.14200000000E+01 0. -1.
       1023    2    1    2    0    0  0.00000000000E+00  0.00000000000E+00 -0.10349461436E+03  0.10540943792E+03  0.20000359974E+02 0.  0.
        -11    1    3    3    0    0 -0.50023137583E+01 -0.86591125865E+01 -0.51668112494E+02  0.52626962887E+02  0.51100000000E-03 0.  1.
         11    1    3    3    0    0  0.50023137583E+01  0.86591125865E+01 -0.51826501870E+02  0.52782475028E+02  0.51100000000E-03 0. -1.
<mgrwt>
<rscale>  0 0.20000360E+02</rscale>
<asrwt>0</asrwt>
<pdfrwt beam="1">  1        4 0.14729420E-03 0.20000360E+02</pdfrwt>
<pdfrwt beam="2">  1       -4 0.16069533E-01 0.20000360E+02</pdfrwt>
<totfact> 0.96495103E+05</totfact>
</mgrwt>
</event>
<event>
 5    1  0.1154861E-006  0.2000100E+02  0.7818608E-02  0.1745308E+00
          4   -1    0    0  501    0  0.00000000000E+00  0.00000000000E+00  0.12796466462E+01  0.19115165548E+01  0.14200000000E+01 0.  1.
         -4   -1    0    0    0  501 -0.00000000000E+00 -0.00000000000E+00 -0.62037748959E+02  0.62053998227E+02  0.14200000000E+01 0. -1.
       1023    2    1    2    0    0  0.00000000000E+00  0.00000000000E+00 -0.60758102313E+02  0.63965514781E+02  0.20001002089E+02 0.  0.
        -11    1    3    3    0    0  0.77306229318E+01 -0.63434261102E+01 -0.30085326302E+02  0.31703760734E+02  0.51100000000E-03 0. -1.
         11    1    3    3    0    0 -0.77306229318E+01  0.63434261102E+01 -0.30672776010E+02  0.32261754047E+02  0.51100000000E-03 0.  1.
<mgrwt>
<rscale>  0 0.20001002E+02</rscale>
<asrwt>0</asrwt>
<pdfrwt beam="1">  1        4 0.24672408E-03 0.20001002E+02</pdfrwt>
<pdfrwt beam="2">  1       -4 0.95941225E-02 0.20001002E+02</pdfrwt>
<totfact> 0.10968081E+06</totfact>
</mgrwt>
</event>
<event>
 5    1  0.1234749E-006  0.2000109E+02  0.7818608E-02  0.1745307E+00
         -4   -1    0    0    0  501 -0.00000000000E+00  0.00000000000E+00  0.16488026962E+02  0.16549061396E+02  0.14200000000E+01 0.  1.
          4   -1    0    0  501    0  0.00000000000E+00 -0.00000000000E+00 -0.59091583309E+01  0.60773803714E+01  0.14200000000E+01 0. -1.
       1023    2    1    2    0    0  0.00000000000E+00  0.00000000000E+00  0.10578868631E+02  0.22626441768E+02  0.20001085109E+02 0.  0.
        -11    1    3    3    0    0 -0.41795032742E+01  0.90852956962E+01  0.52921162400E+01  0.11314474803E+02  0.51100000000E-03 0.  1.
         11    1    3    3    0    0  0.41795032742E+01 -0.90852956962E+01  0.52867523910E+01  0.11311966965E+02  0.51100000000E-03 0. -1.
<mgrwt>
<rscale>  0 0.20001085E+02</rscale>
<asrwt>0</asrwt>
<pdfrwt beam="2">  1        4 0.92673639E-03 0.20001085E+02</pdfrwt>
<pdfrwt beam="1">  1       -4 0.25542547E-02 0.20001085E+02</pdfrwt>
<totfact> 0.12858593E+06</totfact>
</mgrwt>
</event>
<event>
 5    1  0.1161935E-006  0.2000070E+02  0.7818608E-02  0.1745314E+00
          4   -1    0    0  501    0  0.00000000000E+00  0.00000000000E+00  0.34616978918E+01  0.37416242855E+01  0.14200000000E+01 0. -1.
         -4   -1    0    0    0  501 -0.00000000000E+00 -0.00000000000E+00 -0.27467939477E+02  0.27504619596E+02  0.14200000000E+01 0.  1.
       1023    2    1    2    0    0  0.00000000000E+00  0.00000000000E+00 -0.24006241585E+02  0.31246243882E+02  0.20000703029E+02 0.  0.
        -11    1    3    3    0    0 -0.12233163368E+01 -0.99252019952E+01 -0.12049796659E+02  0.15658982639E+02  0.51100000000E-03 0. -1.
         11    1    3    3    0    0  0.12233163368E+01  0.99252019952E+01 -0.11956444926E+02  0.15587261242E+02  0.51100000000E-03 0.  1.
<mgrwt>
<rscale>  0 0.20000703E+02</rscale>
<asrwt>0</asrwt>
<pdfrwt beam="1">  1        4 0.55692327E-03 0.20000703E+02</pdfrwt>
<pdfrwt beam="2">  1       -4 0.42501910E-02 0.20000703E+02</pdfrwt>
<totfact> 0.12390254E+06</totfact>
</mgrwt>
</event>
<event>
 5    1  0.1154861E-006  0.2000016E+02  0.7818608E-02  0.1745325E+00
          4   -1    0    0  501    0  0.00000000000E+00  0.00000000000E+00  0.12718987654E+01  0.19063384981E+01  0.14200000000E+01 0.  1.
         -4   -1    0    0    0  501 -0.00000000000E+00 -0.00000000000E+00 -0.62284841869E+02  0.62301026690E+02  0.14200000000E+01 0. -1.
       1023    2    1    2    0    0  0.00000000000E+00  0.00000000000E+00 -0.61012943103E+02  0.64207365188E+02  0.20000162956E+02 0.  0.
        -11    1    3    3    0    0 -0.14883017410E+01 -0.98886814978E+01 -0.30430131133E+02  0.32031140237E+02  0.51100000000E-03 0.  1.
         11    1    3    3    0    0  0.14883017410E+01  0.98886814978E+01 -0.30582811971E+02  0.32176224952E+02  0.51100000000E-03 0. -1.
<mgrwt>
<rscale>  0 0.20000163E+02</rscale>
<asrwt>0</asrwt>
<pdfrwt beam="1">  1        4 0.24572482E-03 0.20000163E+02</pdfrwt>
<pdfrwt beam="2">  1       -4 0.96323295E-02 0.20000163E+02</pdfrwt>
<totfact> 0.10960041E+06</totfact>
</mgrwt>
</event>
<event>
 5    1  0.1154861E-006  0.2000058E+02  0.7818608E-02  0.1745316E+00
          4   -1    0    0  501    0  0.00000000000E+00  0.00000000000E+00  0.39454942070E+02  0.39480487000E+02  0.14200000000E+01 0.  1.
         -4   -1    0    0    0  501 -0.00000000000E+00 -0.00000000000E+00 -0.23072779850E+01  0.27092308318E+01  0.14200000000E+01 0. -1.
       1023    2    1    2    0    0  0.00000000000E+00  0.00000000000E+00  0.37147664085E+02  0.42189717832E+02  0.20000583585E+02 0.  0.
        -11    1    3    3    0    0 -0.60299311718E+01 -0.79777628114E+01  0.18642712540E+02  0.21155507570E+02  0.51100000000E-03 0. -1.
         11    1    3    3    0    0  0.60299311718E+01  0.79777628114E+01  0.18504951545E+02  0.21034210262E+02  0.51100000000E-03 0.  1.
<mgrwt>
<rscale>  0 0.20000584E+02</rscale>
<asrwt>0</asrwt>
<pdfrwt beam="1">  1        4 0.61028753E-02 0.20000584E+02</pdfrwt>
<pdfrwt beam="2">  1       -4 0.38785030E-03 0.20000584E+02</pdfrwt>
<totfact> 0.11861191E+06</totfact>
</mgrwt>
</event>
<event>
 5    1  0.1154861E-006  0.2000011E+02  0.7818608E-02  0.1745326E+00
          4   -1    0    0  501    0  0.00000000000E+00  0.00000000000E+00  0.70697753019E+02  0.70712012288E+02  0.14200000000E+01 0.  1.
         -4   -1    0    0    0  501 -0.00000000000E+00 -0.00000000000E+00 -0.10399902211E+01  0.17601078547E+01  0.14200000000E+01 0. -1.
       1023    2    1    2    0    0  0.00000000000E+00  0.00000000000E+00  0.69657762797E+02  0.72472120143E+02  0.20000107002E+02 0.  0.
        -11    1    3    3    0    0  0.96255256579E+01  0.27110747855E+01  0.34901269297E+02  0.36305636883E+02  0.51100000000E-03 0. -1.
         11    1    3    3    0    0 -0.96255256579E+01 -0.27110747855E+01  0.34756493500E+02  0.36166483260E+02  0.51100000000E-03 0.  1.
<mgrwt>
<rscale>  0 0.20000107E+02</rscale>
<asrwt>0</asrwt>
<pdfrwt beam="1">  1        4 0.10933067E-01 0.20000107E+02</pdfrwt>
<pdfrwt beam="2">  1       -4 0.21648905E-03 0.20000107E+02</pdfrwt>
<totfact> 0.10664269E+06</totfact>
</mgrwt>
</event>
<event>
 5    1  0.1191909E-006  0.2000093E+02  0.7818608E-02  0.1745310E+00
          4   -1    0    0  501    0  0.00000000000E+00  0.00000000000E+00  0.81414920830E+01  0.82643991517E+01  0.14200000000E+01 0. -1.
         -4   -1    0    0    0  501 -0.00000000000E+00 -0.00000000000E+00 -0.12026881232E+02  0.12110419983E+02  0.14200000000E+01 0.  1.
       1023    2    1    2    0    0  0.00000000000E+00  0.00000000000E+00 -0.38853891492E+01  0.20374819135E+02  0.20000925127E+02 0.  0.
        -11    1    3    3    0    0  0.66242613063E+01  0.74914069335E+01 -0.20293466186E+01  0.10203933734E+02  0.51100000000E-03 0.  1.
         11    1    3    3    0    0 -0.66242613063E+01 -0.74914069335E+01 -0.18560425306E+01  0.10170885401E+02  0.51100000000E-03 0. -1.
<mgrwt>
<rscale>  0 0.20000925E+02</rscale>
<asrwt>0</asrwt>
<pdfrwt beam="1">  1        4 0.12684177E-02 0.20000925E+02</pdfrwt>
<pdfrwt beam="2">  1       -4 0.18661699E-02 0.20000925E+02</pdfrwt>
<totfact> 0.12990517E+06</totfact>
</mgrwt>
</event>
<event>
 5    1  0.1154861E-006  0.2000072E+02  0.7818608E-02  0.1745314E+00
          4   -1    0    0  501    0  0.00000000000E+00  0.00000000000E+00  0.21459467935E+01  0.25732251438E+01  0.14200000000E+01 0. -1.
         -4   -1    0    0    0  501 -0.00000000000E+00 -0.00000000000E+00 -0.41942986578E+02  0.41967017086E+02  0.14200000000E+01 0.  1.
       1023    2    1    2    0    0  0.00000000000E+00  0.00000000000E+00 -0.39797039784E+02  0.44540242229E+02  0.20000720044E+02 0.  0.
        -11    1    3    3    0    0 -0.74487331940E+01 -0.66725821529E+01 -0.19865375029E+02  0.22240505932E+02  0.51100000000E-03 0.  1.
         11    1    3    3    0    0  0.74487331940E+01  0.66725821529E+01 -0.19931664755E+02  0.22299736298E+02  0.51100000000E-03 0. -1.
<mgrwt>
<rscale>  0 0.20000720E+02</rscale>
<asrwt>0</asrwt>
<pdfrwt beam="1">  1        4 0.36486176E-03 0.20000720E+02</pdfrwt>
<pdfrwt beam="2">  1       -4 0.64874827E-02 0.20000720E+02</pdfrwt>
<totfact> 0.11755330E+06</totfact>
</mgrwt>
</event>
<event>
 5    1  0.1154861E-006  0.2000869E+02  0.7818608E-02  0.1745155E+00
          4   -1    0    0  501    0  0.00000000000E+00  0.00000000000E+00  0.96946007501E+00  0.17193757114E+01  0.14200000000E+01 0.  1.
         -4   -1    0    0    0  501 -0.00000000000E+00 -0.00000000000E+00 -0.73687613475E+02  0.73701294287E+02  0.14200000000E+01 0. -1.
       1023    2    1    2    0    0  0.00000000000E+00  0.00000000000E+00 -0.72718153400E+02  0.75420669999E+02  0.20008688842E+02 0.  0.
        -11    1    3    3    0    0  0.98183610966E+01  0.19180307948E+01 -0.36025101474E+02  0.37388326964E+02  0.51100000000E-03 0. -1.
         11    1    3    3    0    0 -0.98183610966E+01 -0.19180307948E+01 -0.36693051926E+02  0.38032343034E+02  0.51100000000E-03 0.  1.
<mgrwt>
<rscale>  0 0.20008689E+02</rscale>
<asrwt>0</asrwt>
<pdfrwt beam="1">  1        4 0.20788595E-03 0.20008689E+02</pdfrwt>
<pdfrwt beam="2">  1       -4 0.11395291E-01 0.20008689E+02</pdfrwt>
<totfact> 0.10554263E+06</totfact>
</mgrwt>
</event>
<event>
 5    1  0.1154861E-006  0.2000315E+02  0.7818608E-02  0.1745265E+00
         -4   -1    0    0    0  501 -0.00000000000E+00  0.00000000000E+00  0.64663269422E+01  0.66204066434E+01  0.14200000000E+01 0.  1.
          4   -1    0    0  501    0  0.00000000000E+00 -0.00000000000E+00 -0.15099679470E+02  0.15166302124E+02  0.14200000000E+01 0. -1.
       1023    2    1    2    0    0  0.00000000000E+00  0.00000000000E+00 -0.86333525282E+01  0.21786708767E+02  0.20003147328E+02 0.  0.
        -11    1    3    3    0    0  0.46109255960E+01  0.88747823397E+01 -0.44204563200E+01  0.10934478989E+02  0.51100000000E-03 0.  1.
         11    1    3    3    0    0 -0.46109255960E+01 -0.88747823397E+01 -0.42128962082E+01  0.10852229778E+02  0.51100000000E-03 0. -1.
<mgrwt>
<rscale>  0 0.20003147E+02</rscale>
<asrwt>0</asrwt>
<pdfrwt beam="2">  1        4 0.23400047E-02 0.20003147E+02</pdfrwt>
<pdfrwt beam="1">  1       -4 0.10117966E-02 0.20003147E+02</pdfrwt>
<totfact> 0.12904484E+06</totfact>
</mgrwt>
</event>
<event>
 5    1  0.1154861E-006  0.2000942E+02  0.7818608E-02  0.1745141E+00
         -4   -1    0    0    0  501 -0.00000000000E+00  0.00000000000E+00  0.18407655727E+01  0.23248264223E+01  0.14200000000E+01 0. -1.
          4   -1    0    0  501    0  0.00000000000E+00 -0.00000000000E+00 -0.47561756761E+02  0.47582949742E+02  0.14200000000E+01 0.  1.
       1023    2    1    2    0    0  0.00000000000E+00  0.00000000000E+00 -0.45720991188E+02  0.49907776165E+02  0.20009424941E+02 0.  0.
        -11    1    3    3    0    0 -0.99795404205E+01  0.70185493889E+00 -0.23115393915E+02  0.25187402873E+02  0.51100000000E-03 0.  1.
         11    1    3    3    0    0  0.99795404205E+01 -0.70185493889E+00 -0.22605597273E+02  0.24720373292E+02  0.51100000000E-03 0. -1.
<mgrwt>
<rscale>  0 0.20009425E+02</rscale>
<asrwt>0</asrwt>
<pdfrwt beam="2">  1        4 0.73560582E-02 0.20009425E+02</pdfrwt>
<pdfrwt beam="1">  1       -4 0.32206042E-03 0.20009425E+02</pdfrwt>
<totfact> 0.11513148E+06</totfact>
</mgrwt>
</event>
<event>
 5    1  0.1159220E-006  0.2000113E+02  0.7818608E-02  0.1745306E+00
         -4   -1    0    0    0  501 -0.00000000000E+00  0.00000000000E+00  0.36334621183E+02  0.36362358237E+02  0.14200000000E+01 0. -1.
          4   -1    0    0  501    0  0.00000000000E+00 -0.00000000000E+00 -0.25385655209E+01  0.29087308064E+01  0.14200000000E+01 0.  1.
       1023    2    1    2    0    0  0.00000000000E+00  0.00000000000E+00  0.33796055662E+02  0.39271089043E+02  0.20001126376E+02 0.  0.
        -11    1    3    3    0    0 -0.94082206321E+01 -0.33893006530E+01  0.17087267919E+02  0.19798401440E+02  0.51100000000E-03 0. -1.
         11    1    3    3    0    0  0.94082206321E+01  0.33893006530E+01  0.16708787744E+02  0.19472687604E+02  0.51100000000E-03 0.  1.
<mgrwt>
<rscale>  0 0.20001126E+02</rscale>
<asrwt>0</asrwt>
<pdfrwt beam="2">  1        4 0.42115641E-03 0.20001126E+02</pdfrwt>
<pdfrwt beam="1">  1       -4 0.56205497E-02 0.20001126E+02</pdfrwt>
<totfact> 0.11995304E+06</totfact>
</mgrwt>
</event>
<event>
 5    1  0.1198682E-006  0.2000108E+02  0.7818608E-02  0.1745307E+00
         -4   -1    0    0    0  501 -0.00000000000E+00  0.00000000000E+00  0.12130411167E+02  0.12213241793E+02  0.14200000000E+01 0. -1.
          4   -1    0    0  501    0  0.00000000000E+00 -0.00000000000E+00 -0.80715658205E+01  0.81955216305E+01  0.14200000000E+01 0.  1.
       1023    2    1    2    0    0  0.00000000000E+00  0.00000000000E+00  0.40588453467E+01  0.20408763423E+02  0.20001084943E+02 0.  0.
        -11    1    3    3    0    0 -0.99832075408E+01 -0.58725857746E+00  0.20695177044E+01  0.10212355714E+02  0.51100000000E-03 0.  1.
         11    1    3    3    0    0  0.99832075408E+01  0.58725857746E+00  0.19893276423E+01  0.10196407709E+02  0.51100000000E-03 0. -1.
<mgrwt>
<rscale>  0 0.20001085E+02</rscale>
<asrwt>0</asrwt>
<pdfrwt beam="2">  1        4 0.12576860E-02 0.20001085E+02</pdfrwt>
<pdfrwt beam="1">  1       -4 0.18821237E-02 0.20001085E+02</pdfrwt>
<totfact> 0.12988291E+06</totfact>
</mgrwt>
</event>
<event>
 5    1  0.1154861E-006  0.2000203E+02  0.7818608E-02  0.1745288E+00
         -4   -1    0    0    0  501 -0.00000000000E+00  0.00000000000E+00  0.30021787400E+01  0.33210656704E+01  0.14200000000E+01 0. -1.
          4   -1    0    0  501    0  0.00000000000E+00 -0.00000000000E+00 -0.31299950743E+02  0.31332145099E+02  0.14200000000E+01 0.  1.
       1023    2    1    2    0    0  0.00000000000E+00  0.00000000000E+00 -0.28297772003E+02  0.34653210769E+02  0.20002027805E+02 0.  0.
        -11    1    3    3    0    0 -0.96226514990E+01 -0.27217318726E+01 -0.14374990580E+02  0.17511242123E+02  0.51100000000E-03 0. -1.
         11    1    3    3    0    0  0.96226514990E+01  0.27217318726E+01 -0.13922781423E+02  0.17141968646E+02  0.51100000000E-03 0.  1.
<mgrwt>
<rscale>  0 0.20002028E+02</rscale>
<asrwt>0</asrwt>
<pdfrwt beam="2">  1        4 0.48423831E-02 0.20002028E+02</pdfrwt>
<pdfrwt beam="1">  1       -4 0.48887993E-03 0.20002028E+02</pdfrwt>
<totfact> 0.12216596E+06</totfact>
</mgrwt>
</event>
<event>
 5    1  0.1154861E-006  0.2000053E+02  0.7818608E-02  0.1745318E+00
         -4   -1    0    0    0  501 -0.00000000000E+00  0.00000000000E+00  0.32120225662E+02  0.32151598663E+02  0.14200000000E+01 0.  1.
          4   -1    0    0  501    0  0.00000000000E+00 -0.00000000000E+00 -0.29168517387E+01  0.32441368752E+01  0.14200000000E+01 0. -1.
       1023    2    1    2    0    0  0.00000000000E+00  0.00000000000E+00  0.29203373924E+02  0.35395735538E+02  0.20000526138E+02 0.  0.
        -11    1    3    3    0    0 -0.99997836001E+01 -0.70813656086E-01  0.14481989690E+02  0.17599111121E+02  0.51100000000E-03 0. -1.
         11    1    3    3    0    0  0.99997836001E+01  0.70813656086E-01  0.14721384234E+02  0.17796624417E+02  0.51100000000E-03 0.  1.
<mgrwt>
<rscale>  0 0.20000526E+02</rscale>
<asrwt>0</asrwt>
<pdfrwt beam="2">  1        4 0.47633549E-03 0.20000526E+02</pdfrwt>
<pdfrwt beam="1">  1       -4 0.49691624E-02 0.20000526E+02</pdfrwt>
<totfact> 0.12181888E+06</totfact>
</mgrwt>
</event>
<event>
 5    1  0.1154861E-006  0.2000185E+02  0.7818608E-02  0.1745291E+00
         -4   -1    0    0    0  501 -0.00000000000E+00  0.00000000000E+00  0.96904129270E+02  0.96914532809E+02  0.14200000000E+01 0.  1.
          4   -1    0    0  501    0  0.00000000000E+00 -0.00000000000E+00 -0.52823678489E+00  0.15150690086E+01  0.14200000000E+01 0. -1.
       1023    2    1    2    0    0  0.00000000000E+00  0.00000000000E+00  0.96375892485E+02  0.98429601817E+02  0.20001846456E+02 0.  0.
        -11    1    3    3    0    0  0.51200832403E+01  0.85900197891E+01  0.47589828211E+02  0.48629162463E+02  0.51100000000E-03 0.  1.
         11    1    3    3    0    0 -0.51200832403E+01 -0.85900197891E+01  0.48786064274E+02  0.49800439355E+02  0.51100000000E-03 0. -1.
<mgrwt>
<rscale>  0 0.20001846E+02</rscale>
<asrwt>0</asrwt>
<pdfrwt beam="2">  1        4 0.15797769E-03 0.20001846E+02</pdfrwt>
<pdfrwt beam="1">  1       -4 0.14985034E-01 0.20001846E+02</pdfrwt>
<totfact> 0.98443837E+05</totfact>
</mgrwt>
</event>
<event>
 4    1  0.1154861E-006  0.2001995E+02  0.7818608E-02  0.1744932E+00
         -4   -1    0    0    0  501 -0.00000000000E+00  0.00000000000E+00  0.19004427012E+02  0.19057403970E+02  0.14200000000E+01 0. -1.
          4   -1    0    0  501    0  0.00000000000E+00 -0.00000000000E+00 -0.51152647548E+01  0.53087035622E+01  0.14200000000E+01 0.  1.
        -11    1    1    2    0    0 -0.40459745053E+01  0.91522456235E+01  0.72574519748E+01  0.12361396324E+02  0.51100000000E-03 0.  1.
         11    1    1    2    0    0  0.40459745053E+01 -0.91522456235E+01  0.66317102828E+01  0.12004711208E+02  0.51100000000E-03 0. -1.
<mgrwt>
<rscale>  0 0.20019949E+02</rscale>
<asrwt>0</asrwt>
<pdfrwt beam="2">  1        4 0.80591887E-03 0.20019949E+02</pdfrwt>
<pdfrwt beam="1">  1       -4 0.29427131E-02 0.20019949E+02</pdfrwt>
<totfact> 0.12735241E+06</totfact>
</mgrwt>
</event>
<event>
 5    1  0.1154861E-006  0.2000035E+02  0.7818608E-02  0.1745321E+00
         -4   -1    0    0    0  501 -0.00000000000E+00  0.00000000000E+00  0.78241566667E+02  0.78254451340E+02  0.14200000000E+01 0.  1.
          4   -1    0    0  501    0  0.00000000000E+00 -0.00000000000E+00 -0.86665294999E+00  0.16635766696E+01  0.14200000000E+01 0. -1.
       1023    2    1    2    0    0  0.00000000000E+00  0.00000000000E+00  0.77374913717E+02  0.79918028010E+02  0.20000348202E+02 0.  0.
        -11    1    3    3    0    0 -0.99187797132E+01  0.12727575662E+01  0.38835840059E+02  0.40102675424E+02  0.51100000000E-03 0. -1.
         11    1    3    3    0    0  0.99187797132E+01 -0.12727575662E+01  0.38539073658E+02  0.39815352586E+02  0.51100000000E-03 0.  1.
<mgrwt>
<rscale>  0 0.20000348E+02</rscale>
<asrwt>0</asrwt>
<pdfrwt beam="2">  1        4 0.19562419E-03 0.20000348E+02</pdfrwt>
<pdfrwt beam="1">  1       -4 0.12099456E-01 0.20000348E+02</pdfrwt>
<totfact> 0.10413478E+06</totfact>
</mgrwt>
</event>
<event>
 5    1  0.1154861E-006  0.2000299E+02  0.7818608E-02  0.1745269E+00
          4   -1    0    0  501    0  0.00000000000E+00  0.00000000000E+00  0.90813692172E+00  0.16855600460E+01  0.14200000000E+01 0. -1.
         -4   -1    0    0    0  501 -0.00000000000E+00 -0.00000000000E+00 -0.76347069495E+02  0.76360273837E+02  0.14200000000E+01 0.  1.
       1023    2    1    2    0    0  0.00000000000E+00  0.00000000000E+00 -0.75438932573E+02  0.78045833883E+02  0.20002990744E+02 0.  0.
        -11    1    3    3    0    0  0.95126014221E+01 -0.30854293581E+01 -0.37161518246E+02  0.38483605584E+02  0.51100000000E-03 0.  1.
         11    1    3    3    0    0 -0.95126014221E+01  0.30854293581E+01 -0.38277414327E+02  0.39562228299E+02  0.51100000000E-03 0. -1.
<mgrwt>
<rscale>  0 0.20002991E+02</rscale>
<asrwt>0</asrwt>
<pdfrwt beam="1">  1        4 0.20053093E-03 0.20002991E+02</pdfrwt>
<pdfrwt beam="2">  1       -4 0.11806517E-01 0.20002991E+02</pdfrwt>
<totfact> 0.10472367E+06</totfact>
</mgrwt>
</event>
<event>
 5    1  0.1157428E-006  0.2000056E+02  0.7818608E-02  0.1745317E+00
          4   -1    0    0  501    0  0.00000000000E+00  0.00000000000E+00  0.68539112862E+01  0.69994642594E+01  0.14200000000E+01 0.  1.
         -4   -1    0    0    0  501 -0.00000000000E+00 -0.00000000000E+00 -0.14256533613E+02  0.14327077534E+02  0.14200000000E+01 0. -1.
       1023    2    1    2    0    0  0.00000000000E+00  0.00000000000E+00 -0.74026223271E+01  0.21326541793E+02  0.20000564181E+02 0.  0.
        -11    1    3    3    0    0  0.98271050126E+01  0.18530097861E+01 -0.37032860880E+01  0.10663956410E+02  0.51100000000E-03 0. -1.
         11    1    3    3    0    0 -0.98271050126E+01 -0.18530097861E+01 -0.36993362391E+01  0.10662585384E+02  0.51100000000E-03 0.  1.
<mgrwt>
<rscale>  0 0.20000564E+02</rscale>
<asrwt>0</asrwt>
<pdfrwt beam="1">  1        4 0.10710707E-02 0.20000564E+02</pdfrwt>
<pdfrwt beam="2">  1       -4 0.22099357E-02 0.20000564E+02</pdfrwt>
<totfact> 0.12934786E+06</totfact>
</mgrwt>
</event>
<event>
 5    1  0.1154861E-006  0.2000042E+02  0.7818608E-02  0.1745320E+00
         -4   -1    0    0    0  501 -0.00000000000E+00  0.00000000000E+00  0.18137240554E+01  0.23034745384E+01  0.14200000000E+01 0.  1.
          4   -1    0    0  501    0  0.00000000000E+00 -0.00000000000E+00 -0.48077301396E+02  0.48098267219E+02  0.14200000000E+01 0. -1.
       1023    2    1    2    0    0  0.00000000000E+00  0.00000000000E+00 -0.46263577340E+02  0.50401741758E+02  0.20000424593E+02 0.  0.
        -11    1    3    3    0    0  0.59252640516E+01 -0.80555832469E+01 -0.23271421770E+02  0.25329039599E+02  0.51100000000E-03 0. -1.
         11    1    3    3    0    0 -0.59252640516E+01  0.80555832469E+01 -0.22992155570E+02  0.25072702159E+02  0.51100000000E-03 0.  1.
<mgrwt>
<rscale>  0 0.20000425E+02</rscale>
<asrwt>0</asrwt>
<pdfrwt beam="2">  1        4 0.74357929E-02 0.20000425E+02</pdfrwt>
<pdfrwt beam="1">  1       -4 0.31832038E-03 0.20000425E+02</pdfrwt>
<totfact> 0.11502862E+06</totfact>
</mgrwt>
</event>
<event>
 5    1  0.1154861E-006  0.2000611E+02  0.7818608E-02  0.1745207E+00
          4   -1    0    0  501    0  0.00000000000E+00  0.00000000000E+00  0.24500803295E+02  0.24541918469E+02  0.14200000000E+01 0.  1.
         -4   -1    0    0    0  501 -0.00000000000E+00 -0.00000000000E+00 -0.39145500548E+01  0.41641448260E+01  0.14200000000E+01 0. -1.
       1023    2    1    2    0    0  0.00000000000E+00  0.00000000000E+00  0.20586253241E+02  0.28706063295E+02  0.20006105253E+02 0.  0.
        -11    1    3    3    0    0 -0.79868613254E+01  0.60189512235E+01  0.10591819655E+02  0.14567236235E+02  0.51100000000E-03 0. -1.
         11    1    3    3    0    0  0.79868613254E+01 -0.60189512235E+01  0.99944335852E+01  0.14138827059E+02  0.51100000000E-03 0.  1.
<mgrwt>
<rscale>  0 0.20006105E+02</rscale>
<asrwt>0</asrwt>
<pdfrwt beam="1">  1        4 0.37917167E-02 0.20006105E+02</pdfrwt>
<pdfrwt beam="2">  1       -4 0.62460076E-03 0.20006105E+02</pdfrwt>
<totfact> 0.12516114E+06</totfact>
</mgrwt>
</event>
<event>
 5    1  0.1160566E-006  0.2000071E+02  0.7818608E-02  0.1745314E+00
          4   -1    0    0  501    0  0.00000000000E+00  0.00000000000E+00  0.45657115844E+01  0.47814351687E+01  0.14200000000E+01 0.  1.
         -4   -1    0    0    0  501 -0.00000000000E+00 -0.00000000000E+00 -0.21158349525E+02  0.21205946209E+02  0.14200000000E+01 0. -1.
       1023    2    1    2    0    0  0.00000000000E+00  0.00000000000E+00 -0.16592637940E+02  0.25987381378E+02  0.20000708913E+02 0.  0.
        -11    1    3    3    0    0  0.71522336391E+01 -0.69893102539E+01 -0.83570565231E+01  0.13032470903E+02  0.51100000000E-03 0.  1.
         11    1    3    3    0    0 -0.71522336391E+01  0.69893102539E+01 -0.82355814172E+01  0.12954910474E+02  0.51100000000E-03 0. -1.
<mgrwt>
<rscale>  0 0.20000709E+02</rscale>
<asrwt>0</asrwt>
<pdfrwt beam="1">  1        4 0.72267259E-03 0.20000709E+02</pdfrwt>
<pdfrwt beam="2">  1       -4 0.32753860E-02 0.20000709E+02</pdfrwt>
<totfact> 0.12669949E+06</totfact>
</mgrwt>
</event>
<event>
 5    1  0.1154861E-006  0.2000004E+02  0.7818608E-02  0.1745327E+00
         -4   -1    0    0    0  501 -0.00000000000E+00  0.00000000000E+00  0.16671962009E+02  0.16732325518E+02  0.14200000000E+01 0.  1.
          4   -1    0    0  501    0  0.00000000000E+00 -0.00000000000E+00 -0.58417085339E+01  0.60118182437E+01  0.14200000000E+01 0. -1.
       1023    2    1    2    0    0  0.00000000000E+00  0.00000000000E+00  0.10830253475E+02  0.22744143761E+02  0.20000042127E+02 0.  0.
        -11    1    3    3    0    0 -0.27556643811E+01  0.96128413298E+01  0.54105212244E+01  0.11369878838E+02  0.51100000000E-03 0.  1.
         11    1    3    3    0    0  0.27556643811E+01 -0.96128413298E+01  0.54197322506E+01  0.11374264923E+02  0.51100000000E-03 0. -1.
<mgrwt>
<rscale>  0 0.20000042E+02</rscale>
<asrwt>0</asrwt>
<pdfrwt beam="2">  1        4 0.91645311E-03 0.20000042E+02</pdfrwt>
<pdfrwt beam="1">  1       -4 0.25826459E-02 0.20000042E+02</pdfrwt>
<totfact> 0.12853192E+06</totfact>
</mgrwt>
</event>
<event>
 5    1  0.1208573E-006  0.2000165E+02  0.7818608E-02  0.1745295E+00
          4   -1    0    0  501    0  0.00000000000E+00  0.00000000000E+00  0.17332665749E+02  0.17390736096E+02  0.14200000000E+01 0. -1.
         -4   -1    0    0    0  501 -0.00000000000E+00 -0.00000000000E+00 -0.56141389256E+01  0.57909373918E+01  0.14200000000E+01 0. -1.
       1023    2    1    2    0    0  0.00000000000E+00  0.00000000000E+00  0.11718526823E+02  0.23181673488E+02  0.20001652802E+02 0.  0.
        -11    1    3    3    0    0 -0.34528475750E+01 -0.93850626204E+01  0.57174510621E+01  0.11519149434E+02  0.51100000000E-03 0. -1.
         11    1    3    3    0    0  0.34528475750E+01  0.93850626204E+01  0.60010757613E+01  0.11662524054E+02  0.51100000000E-03 0.  1.
<mgrwt>
<rscale>  0 0.20001653E+02</rscale>
<asrwt>0</asrwt>
<pdfrwt beam="1">  1        4 0.26846308E-02 0.20001653E+02</pdfrwt>
<pdfrwt beam="2">  1       -4 0.88178052E-03 0.20001653E+02</pdfrwt>
<totfact> 0.12826033E+06</totfact>
</mgrwt>
</event>
<event>
 5    1  0.1154861E-006  0.2000031E+02  0.7818608E-02  0.1745322E+00
          4   -1    0    0  501    0  0.00000000000E+00  0.00000000000E+00  0.19045198204E+02  0.19098062065E+02  0.14200000000E+01 0.  1.
         -4   -1    0    0    0  501 -0.00000000000E+00 -0.00000000000E+00 -0.50934359325E+01  0.52876733635E+01  0.14200000000E+01 0. -1.
       1023    2    1    2    0    0  0.00000000000E+00  0.00000000000E+00  0.13951762272E+02  0.24385735429E+02  0.20000310545E+02 0.  0.
        -11    1    3    3    0    0  0.99931064075E+01 -0.37540560799E+00  0.69763876897E+01  0.12193157528E+02  0.51100000000E-03 0. -1.
         11    1    3    3    0    0 -0.99931064075E+01  0.37540560799E+00  0.69753745822E+01  0.12192577901E+02  0.51100000000E-03 0.  1.
<mgrwt>
<rscale>  0 0.20000311E+02</rscale>
<asrwt>0</asrwt>
<pdfrwt beam="1">  1        4 0.29490383E-02 0.20000311E+02</pdfrwt>
<pdfrwt beam="2">  1       -4 0.80261331E-03 0.20000311E+02</pdfrwt>
<totfact> 0.12759624E+06</totfact>
</mgrwt>
</event>
<event>
 5    1  0.1181601E-006  0.2000063E+02  0.7818608E-02  0.1745316E+00
          4   -1    0    0  501    0  0.00000000000E+00  0.00000000000E+00  0.92351465513E+01  0.93436787094E+01  0.14200000000E+01 0.  1.
         -4   -1    0    0    0  501 -0.00000000000E+00 -0.00000000000E+00 -0.10609512371E+02  0.10704118495E+02  0.14200000000E+01 0. -1.
       1023    2    1    2    0    0  0.00000000000E+00  0.00000000000E+00 -0.13743658197E+01  0.20047797204E+02  0.20000632273E+02 0.  0.
        -11    1    3    3    0    0 -0.22080148307E+01 -0.97534718676E+01 -0.65919560302E+00  0.10021979948E+02  0.51100000000E-03 0. -1.
         11    1    3    3    0    0  0.22080148307E+01  0.97534718676E+01 -0.71517021673E+00  0.10025817257E+02  0.51100000000E-03 0.  1.
<mgrwt>
<rscale>  0 0.20000632E+02</rscale>
<asrwt>0</asrwt>
<pdfrwt beam="1">  1        4 0.14364178E-02 0.20000632E+02</pdfrwt>
<pdfrwt beam="2">  1       -4 0.16478587E-02 0.20000632E+02</pdfrwt>
<totfact> 0.13010369E+06</totfact>
</mgrwt>
</event>
<event>
 5    1  0.1154861E-006  0.2000054E+02  0.7818608E-02  0.1745317E+00
         -4   -1    0    0    0  501 -0.00000000000E+00  0.00000000000E+00  0.83420759623E+02  0.83432844468E+02  0.14200000000E+01 0. -1.
          4   -1    0    0  501    0  0.00000000000E+00 -0.00000000000E+00 -0.76177934923E+00  0.16114303512E+01  0.14200000000E+01 0.  1.
       1023    2    1    2    0    0  0.00000000000E+00  0.00000000000E+00  0.82658980274E+02  0.85044274820E+02  0.20000541485E+02 0.  0.
        -11    1    3    3    0    0 -0.14602062335E+01  0.98930733740E+01  0.41404553165E+02  0.42595095094E+02  0.51100000000E-03 0. -1.
         11    1    3    3    0    0  0.14602062335E+01 -0.98930733740E+01  0.41254427109E+02  0.42449179725E+02  0.51100000000E-03 0.  1.
<mgrwt>
<rscale>  0 0.20000541E+02</rscale>
<asrwt>0</asrwt>
<pdfrwt beam="2">  1        4 0.18348427E-03 0.20000541E+02</pdfrwt>
<pdfrwt beam="1">  1       -4 0.12900245E-01 0.20000541E+02</pdfrwt>
<totfact> 0.10248751E+06</totfact>
</mgrwt>
</event>
<event>
 5    1  0.1210681E-006  0.2000077E+02  0.7818608E-02  0.1745313E+00
         -4   -1    0    0    0  501 -0.00000000000E+00  0.00000000000E+00  0.10648765296E+02  0.10743025753E+02  0.14200000000E+01 0. -1.
          4   -1    0    0  501    0  0.00000000000E+00 -0.00000000000E+00 -0.92011390010E+01  0.93100676107E+01  0.14200000000E+01 0.  1.
       1023    2    1    2    0    0  0.00000000000E+00  0.00000000000E+00  0.14476262954E+01  0.20053093364E+02  0.20000773274E+02 0.  0.
        -11    1    3    3    0    0 -0.46025053397E+01  0.88783000276E+01  0.74545318406E+00  0.10028108869E+02  0.51100000000E-03 0. -1.
         11    1    3    3    0    0  0.46025053397E+01 -0.88783000276E+01  0.70217311139E+00  0.10024984495E+02  0.51100000000E-03 0.  1.
<mgrwt>
<rscale>  0 0.20000773E+02</rscale>
<asrwt>0</asrwt>
<pdfrwt beam="2">  1        4 0.14311898E-02 0.20000773E+02</pdfrwt>
<pdfrwt beam="1">  1       -4 0.16539015E-02 0.20000773E+02</pdfrwt>
<totfact> 0.13009867E+06</totfact>
</mgrwt>
</event>
<event>
 5    1  0.1154861E-006  0.2000056E+02  0.7818608E-02  0.1745317E+00
         -4   -1    0    0    0  501 -0.00000000000E+00  0.00000000000E+00  0.45711768987E+00  0.14917629109E+01  0.14200000000E+01 0.  1.
          4   -1    0    0  501    0  0.00000000000E+00 -0.00000000000E+00 -0.10158648742E+03  0.10159641148E+03  0.14200000000E+01 0. -1.
       1023    2    1    2    0    0  0.00000000000E+00  0.00000000000E+00 -0.10112936973E+03  0.10308817439E+03  0.20000556941E+02 0.  0.
        -11    1    3    3    0    0 -0.96257950113E+01  0.27106388630E+01 -0.50799562444E+02  0.51774501807E+02  0.51100000000E-03 0.  1.
         11    1    3    3    0    0  0.96257950113E+01 -0.27106388630E+01 -0.50329807284E+02  0.51313672585E+02  0.51100000000E-03 0. -1.
<mgrwt>
<rscale>  0 0.20000557E+02</rscale>
<asrwt>0</asrwt>
<pdfrwt beam="2">  1        4 0.15709033E-01 0.20000557E+02</pdfrwt>
<pdfrwt beam="1">  1       -4 0.15067736E-03 0.20000557E+02</pdfrwt>
<totfact> 0.97136504E+05</totfact>
</mgrwt>
</event>
<event>
 5    1  0.1154861E-006  0.2000013E+02  0.7818608E-02  0.1745326E+00
         -4   -1    0    0    0  501 -0.00000000000E+00  0.00000000000E+00  0.35443495634E+01  0.38182212910E+01  0.14200000000E+01 0. -1.
          4   -1    0    0  501    0  0.00000000000E+00 -0.00000000000E+00 -0.26871459187E+02  0.26908952392E+02  0.14200000000E+01 0.  1.
       1023    2    1    2    0    0  0.00000000000E+00  0.00000000000E+00 -0.23327109624E+02  0.30727173683E+02  0.20000128979E+02 0.  0.
        -11    1    3    3    0    0 -0.21865338112E+00  0.99976155845E+01 -0.11715945276E+02  0.15403360044E+02  0.51100000000E-03 0. -1.
         11    1    3    3    0    0  0.21865338112E+00 -0.99976155845E+01 -0.11611164348E+02  0.15323813639E+02  0.51100000000E-03 0.  1.
<mgrwt>
<rscale>  0 0.20000129E+02</rscale>
<asrwt>0</asrwt>
<pdfrwt beam="2">  1        4 0.41580217E-02 0.20000129E+02</pdfrwt>
<pdfrwt beam="1">  1       -4 0.56923571E-03 0.20000129E+02</pdfrwt>
<totfact> 0.12417770E+06</totfact>
</mgrwt>
</event>
<event>
 5    1  0.1154861E-006  0.2000017E+02  0.7818608E-02  0.1745325E+00
         -4   -1    0    0    0  501 -0.00000000000E+00  0.00000000000E+00  0.94444051891E+01  0.95505596368E+01  0.14200000000E+01 0.  1.
          4   -1    0    0  501    0  0.00000000000E+00 -0.00000000000E+00 -0.10374491891E+02  0.10471221609E+02  0.14200000000E+01 0. -1.
       1023    2    1    2    0    0  0.00000000000E+00  0.00000000000E+00 -0.93008670144E+00  0.20021781246E+02  0.20000166574E+02 0.  0.
        -11    1    3    3    0    0 -0.89108791731E+01 -0.45384635763E+01 -0.48075154260E+00  0.10011620327E+02  0.51100000000E-03 0. -1.
         11    1    3    3    0    0  0.89108791731E+01  0.45384635763E+01 -0.44933515884E+00  0.10010160919E+02  0.51100000000E-03 0.  1.
<mgrwt>
<rscale>  0 0.20000167E+02</rscale>
<asrwt>0</asrwt>
<pdfrwt beam="2">  1        4 0.16116822E-02 0.20000167E+02</pdfrwt>
<pdfrwt beam="1">  1       -4 0.14685919E-02 0.20000167E+02</pdfrwt>
<totfact> 0.13012531E+06</totfact>
</mgrwt>
</event>
<event>
 5    1  0.1160582E-006  0.2000164E+02  0.7818608E-02  0.1745296E+00
         -4   -1    0    0    0  501 -0.00000000000E+00  0.00000000000E+00  0.21478645371E+01  0.25748246678E+01  0.14200000000E+01 0. -1.
          4   -1    0    0  501    0  0.00000000000E+00 -0.00000000000E+00 -0.41915613508E+02  0.41939659700E+02  0.14200000000E+01 0.  1.
       1023    2    1    2    0    0  0.00000000000E+00  0.00000000000E+00 -0.39767748971E+02  0.44514484368E+02  0.20001636441E+02 0.  0.
        -11    1    3    3    0    0 -0.31531786557E+01  0.94906725588E+01 -0.19814790647E+02  0.22195524997E+02  0.51100000000E-03 0.  1.
         11    1    3    3    0    0  0.31531786557E+01 -0.94906725588E+01 -0.19952958324E+02  0.22318959371E+02  0.51100000000E-03 0. -1.
<mgrwt>
<rscale>  0 0.20001636E+02</rscale>
<asrwt>0</asrwt>
<pdfrwt beam="2">  1        4 0.64832482E-02 0.20001636E+02</pdfrwt>
<pdfrwt beam="1">  1       -4 0.36513352E-03 0.20001636E+02</pdfrwt>
<totfact> 0.11755386E+06</totfact>
</mgrwt>
</event>
<event>
 5    1  0.1154861E-006  0.2000289E+02  0.7818608E-02  0.1745271E+00
          4   -1    0    0  501    0  0.00000000000E+00  0.00000000000E+00  0.67050722870E+02  0.67065757562E+02  0.14200000000E+01 0. -1.
         -4   -1    0    0    0  501 -0.00000000000E+00 -0.00000000000E+00 -0.11352058547E+01  0.18179912905E+01  0.14200000000E+01 0.  1.
       1023    2    1    2    0    0  0.00000000000E+00  0.00000000000E+00  0.65915517015E+02  0.68883748853E+02  0.20002886607E+02 0.  0.
        -11    1    3    3    0    0 -0.98019565618E+01  0.19820023856E+01  0.33470648694E+02  0.34932663943E+02  0.51100000000E-03 0.  1.
         11    1    3    3    0    0  0.98019565618E+01 -0.19820023856E+01  0.32444868322E+02  0.33951084910E+02  0.51100000000E-03 0. -1.
<mgrwt>
<rscale>  0 0.20002887E+02</rscale>
<asrwt>0</asrwt>
<pdfrwt beam="1">  1        4 0.10369175E-01 0.20002887E+02</pdfrwt>
<pdfrwt beam="2">  1       -4 0.22832550E-03 0.20002887E+02</pdfrwt>
<totfact> 0.10787259E+06</totfact>
</mgrwt>
</event>
<event>
 5    1  0.1165854E-006  0.2000145E+02  0.7818608E-02  0.1745299E+00
         -4   -1    0    0    0  501 -0.00000000000E+00  0.00000000000E+00  0.21496742022E+02  0.21543591102E+02  0.14200000000E+01 0.  1.
          4   -1    0    0  501    0  0.00000000000E+00 -0.00000000000E+00 -0.44909347363E+01  0.47100843735E+01  0.14200000000E+01 0. -1.
       1023    2    1    2    0    0  0.00000000000E+00  0.00000000000E+00  0.17005807286E+02  0.26253675476E+02  0.20001449811E+02 0.  0.
        -11    1    3    3    0    0 -0.39762732193E+01 -0.91759609751E+01  0.86001578761E+01  0.13189834127E+02  0.51100000000E-03 0. -1.
         11    1    3    3    0    0  0.39762732193E+01  0.91759609751E+01  0.84056494098E+01  0.13063841349E+02  0.51100000000E-03 0.  1.
<mgrwt>
<rscale>  0 0.20001450E+02</rscale>
<asrwt>0</asrwt>
<pdfrwt beam="2">  1        4 0.71137448E-03 0.20001450E+02</pdfrwt>
<pdfrwt beam="1">  1       -4 0.33276525E-02 0.20001450E+02</pdfrwt>
<totfact> 0.12654362E+06</totfact>
</mgrwt>
</event>
<event>
 5    1  0.1154861E-006  0.2000158E+02  0.7818608E-02  0.1745297E+00
         -4   -1    0    0    0  501 -0.00000000000E+00  0.00000000000E+00  0.11384241129E+03  0.11385126705E+03  0.14200000000E+01 0.  1.
          4   -1    0    0  501    0  0.00000000000E+00 -0.00000000000E+00 -0.28996456337E+00  0.14493030905E+01  0.14200000000E+01 0. -1.
       1023    2    1    2    0    0  0.00000000000E+00  0.00000000000E+00  0.11355244673E+03  0.11530057014E+03  0.20001582851E+02 0.  0.
        -11    1    3    3    0    0 -0.87924381051E+01  0.47642398569E+01  0.57377499727E+02  0.58242445213E+02  0.51100000000E-03 0. -1.
         11    1    3    3    0    0  0.87924381051E+01 -0.47642398569E+01  0.56174947003E+02  0.57058124927E+02  0.51100000000E-03 0.  1.
<mgrwt>
<rscale>  0 0.20001583E+02</rscale>
<asrwt>0</asrwt>
<pdfrwt beam="2">  1        4 0.13447098E-03 0.20001583E+02</pdfrwt>
<pdfrwt beam="1">  1       -4 0.17604085E-01 0.20001583E+02</pdfrwt>
<totfact> 0.93843300E+05</totfact>
</mgrwt>
</event>
<event>
 5    1  0.1154861E-006  0.2000032E+02  0.7818608E-02  0.1745322E+00
         -4   -1    0    0    0  501 -0.00000000000E+00  0.00000000000E+00  0.13798237093E+01  0.19799781485E+01  0.14200000000E+01 0.  1.
          4   -1    0    0  501    0  0.00000000000E+00 -0.00000000000E+00 -0.58918979820E+02  0.58936088969E+02  0.14200000000E+01 0. -1.
       1023    2    1    2    0    0  0.00000000000E+00  0.00000000000E+00 -0.57539156111E+02  0.60916067118E+02  0.20000318677E+02 0.  0.
        -11    1    3    3    0    0  0.83684480966E+01 -0.54744245121E+01 -0.28604452746E+02  0.30302062050E+02  0.51100000000E-03 0. -1.
         11    1    3    3    0    0 -0.83684480966E+01  0.54744245121E+01 -0.28934703364E+02  0.30614005068E+02  0.51100000000E-03 0.  1.
<mgrwt>
<rscale>  0 0.20000319E+02</rscale>
<asrwt>0</asrwt>
<pdfrwt beam="2">  1        4 0.91119386E-02 0.20000319E+02</pdfrwt>
<pdfrwt beam="1">  1       -4 0.25976243E-03 0.20000319E+02</pdfrwt>
<totfact> 0.11083468E+06</totfact>
</mgrwt>
</event>
<event>
 5    1  0.1154861E-006  0.2000022E+02  0.7818608E-02  0.1745324E+00
          4   -1    0    0  501    0  0.00000000000E+00  0.00000000000E+00  0.37859482120E+01  0.40434890706E+01  0.14200000000E+01 0.  1.
         -4   -1    0    0    0  501 -0.00000000000E+00 -0.00000000000E+00 -0.25267058861E+02  0.25306929160E+02  0.14200000000E+01 0. -1.
       1023    2    1    2    0    0  0.00000000000E+00  0.00000000000E+00 -0.21481110649E+02  0.29350418230E+02  0.20000223388E+02 0.  0.
        -11    1    3    3    0    0  0.80106976405E+01 -0.59858422328E+01 -0.10777961082E+02  0.14702585802E+02  0.51100000000E-03 0. -1.
         11    1    3    3    0    0 -0.80106976405E+01  0.59858422328E+01 -0.10703149567E+02  0.14647832428E+02  0.51100000000E-03 0.  1.
<mgrwt>
<rscale>  0 0.20000223E+02</rscale>
<asrwt>0</asrwt>
<pdfrwt beam="1">  1        4 0.60533137E-03 0.20000223E+02</pdfrwt>
<pdfrwt beam="2">  1       -4 0.39101175E-02 0.20000223E+02</pdfrwt>
<totfact> 0.12489525E+06</totfact>
</mgrwt>
</event>
<event>
 4    1  0.1154861E-006  0.2008527E+02  0.7818608E-02  0.1743638E+00
         -4   -1    0    0    0  501 -0.00000000000E+00  0.00000000000E+00  0.35783740133E+01  0.38498260453E+01  0.14200000000E+01 0.  1.
          4   -1    0    0  501    0  0.00000000000E+00 -0.00000000000E+00 -0.26863606989E+02  0.26901111138E+02  0.14200000000E+01 0. -1.
        -11    1    1    2    0    0 -0.20099573987E+01 -0.98389792023E+01 -0.11496767474E+02  0.15265028762E+02  0.51100000000E-03 0.  1.
         11    1    1    2    0    0  0.20099573987E+01  0.98389792023E+01 -0.11788465502E+02  0.15485908421E+02  0.51100000000E-03 0. -1.
<mgrwt>
<rscale>  0 0.20085270E+02</rscale>
<asrwt>0</asrwt>
<pdfrwt beam="2">  1        4 0.41566283E-02 0.20085270E+02</pdfrwt>
<pdfrwt beam="1">  1       -4 0.57428496E-03 0.20085270E+02</pdfrwt>
<totfact> 0.12309798E+06</totfact>
</mgrwt>
</event>
<event>
 5    1  0.1154861E-006  0.2000100E+02  0.7818608E-02  0.1745308E+00
          4   -1    0    0  501    0  0.00000000000E+00  0.00000000000E+00  0.63815703962E+02  0.63831500626E+02  0.14200000000E+01 0. -1.
         -4   -1    0    0    0  501 -0.00000000000E+00 -0.00000000000E+00 -0.12261518490E+01  0.18761258905E+01  0.14200000000E+01 0.  1.
       1023    2    1    2    0    0  0.00000000000E+00  0.00000000000E+00  0.62589552113E+02  0.65707626516E+02  0.20001003693E+02 0.  0.
        -11    1    3    3    0    0 -0.92959898258E+01 -0.36870494435E+01  0.31240150612E+02  0.32801779997E+02  0.51100000000E-03 0. -1.
         11    1    3    3    0    0  0.92959898258E+01  0.36870494435E+01  0.31349401500E+02  0.32905846519E+02  0.51100000000E-03 0.  1.
<mgrwt>
<rscale>  0 0.20001004E+02</rscale>
<asrwt>0</asrwt>
<pdfrwt beam="1">  1        4 0.98690127E-02 0.20001004E+02</pdfrwt>
<pdfrwt beam="2">  1       -4 0.23985190E-03 0.20001004E+02</pdfrwt>
<totfact> 0.10903915E+06</totfact>
</mgrwt>
</event>
<event>
 5    1  0.1154861E-006  0.2000004E+02  0.7818608E-02  0.1745327E+00
          4   -1    0    0  501    0  0.00000000000E+00  0.00000000000E+00  0.34456855690E+02  0.34486103057E+02  0.14200000000E+01 0. -1.
         -4   -1    0    0    0  501 -0.00000000000E+00 -0.00000000000E+00 -0.26960930663E+01  0.30471819476E+01  0.14200000000E+01 0.  1.
       1023    2    1    2    0    0  0.00000000000E+00  0.00000000000E+00  0.31760762624E+02  0.37533285005E+02  0.20000036020E+02 0.  0.
        -11    1    3    3    0    0 -0.64394595313E+01  0.76507249414E+01  0.15859087094E+02  0.18748623280E+02  0.51100000000E-03 0. -1.
         11    1    3    3    0    0  0.64394595313E+01 -0.76507249414E+01  0.15901675530E+02  0.18784661725E+02  0.51100000000E-03 0.  1.
<mgrwt>
<rscale>  0 0.20000036E+02</rscale>
<asrwt>0</asrwt>
<pdfrwt beam="1">  1        4 0.53303113E-02 0.20000036E+02</pdfrwt>
<pdfrwt beam="2">  1       -4 0.44404019E-03 0.20000036E+02</pdfrwt>
<totfact> 0.12078961E+06</totfact>
</mgrwt>
</event>
<event>
 4    1  0.1154861E-006  0.2002461E+02  0.7818608E-02  0.1744839E+00
          4   -1    0    0  501    0  0.00000000000E+00  0.00000000000E+00  0.10289346107E+01  0.17535981390E+01  0.14200000000E+01 0. -1.
         -4   -1    0    0    0  501 -0.00000000000E+00 -0.00000000000E+00 -0.71320395911E+02  0.71334530719E+02  0.14200000000E+01 0.  1.
        -11    1    1    2    0    0 -0.46541475423E+01  0.88641556376E+01 -0.34747282926E+02  0.36160863036E+02  0.51100000000E-03 0. -1.
         11    1    1    2    0    0  0.46541475423E+01 -0.88641556376E+01 -0.35544178374E+02  0.36927265822E+02  0.51100000000E-03 0.  1.
<mgrwt>
<rscale>  0 0.20024611E+02</rscale>
<asrwt>0</asrwt>
<pdfrwt beam="1">  1        4 0.21512833E-03 0.20024611E+02</pdfrwt>
<pdfrwt beam="2">  1       -4 0.11029196E-01 0.20024611E+02</pdfrwt>
<totfact> 0.10616891E+06</totfact>
</mgrwt>
</event>
<event>
 5    1  0.1154861E-006  0.2000044E+02  0.7818608E-02  0.1745319E+00
         -4   -1    0    0    0  501 -0.00000000000E+00  0.00000000000E+00  0.97423905945E+00  0.17220748372E+01  0.14200000000E+01 0.  1.
          4   -1    0    0  501    0  0.00000000000E+00 -0.00000000000E+00 -0.73422033145E+02  0.73435763434E+02  0.14200000000E+01 0. -1.
       1023    2    1    2    0    0  0.00000000000E+00  0.00000000000E+00 -0.72447794086E+02  0.75157838272E+02  0.20000444639E+02 0.  0.
        -11    1    3    3    0    0 -0.93214350030E+01  0.36215001234E+01 -0.36202468678E+02  0.37558263436E+02  0.51100000000E-03 0.  1.
         11    1    3    3    0    0  0.93214350030E+01 -0.36215001234E+01 -0.36245325408E+02  0.37599574836E+02  0.51100000000E-03 0. -1.
<mgrwt>
<rscale>  0 0.20000445E+02</rscale>
<asrwt>0</asrwt>
<pdfrwt beam="2">  1        4 0.11354276E-01 0.20000445E+02</pdfrwt>
<pdfrwt beam="1">  1       -4 0.20846499E-03 0.20000445E+02</pdfrwt>
<totfact> 0.10571887E+06</totfact>
</mgrwt>
</event>
<event>
 5    1  0.1154861E-006  0.2000224E+02  0.7818608E-02  0.1745284E+00
          4   -1    0    0  501    0  0.00000000000E+00  0.00000000000E+00  0.49452938412E+02  0.49473321271E+02  0.14200000000E+01 0. -1.
         -4   -1    0    0    0  501 -0.00000000000E+00 -0.00000000000E+00 -0.17498933697E+01  0.22535586980E+01  0.14200000000E+01 0.  1.
       1023    2    1    2    0    0  0.00000000000E+00  0.00000000000E+00  0.47703045042E+02  0.51726879969E+02  0.20002240000E+02 0.  0.
        -11    1    3    3    0    0 -0.82760944947E+01  0.56150318706E+01  0.23828683165E+02  0.25842377302E+02  0.51100000000E-03 0.  1.
         11    1    3    3    0    0  0.82760944947E+01 -0.56150318706E+01  0.23874361877E+02  0.25884502667E+02  0.51100000000E-03 0. -1.
<mgrwt>
<rscale>  0 0.20002240E+02</rscale>
<asrwt>0</asrwt>
<pdfrwt beam="1">  1        4 0.76484551E-02 0.20002240E+02</pdfrwt>
<pdfrwt beam="2">  1       -4 0.30952579E-03 0.20002240E+02</pdfrwt>
<totfact> 0.11445613E+06</totfact>
</mgrwt>
</event>
<event>
 4    1  0.1154861E-006  0.2004022E+02  0.7818608E-02  0.1744530E+00
          4   -1    0    0  501    0  0.00000000000E+00  0.00000000000E+00  0.20672263793E+02  0.20720977060E+02  0.14200000000E+01 0.  1.
         -4   -1    0    0    0  501 -0.00000000000E+00 -0.00000000000E+00 -0.46973503888E+01  0.49072905635E+01  0.14200000000E+01 0. -1.
        -11    1    1    2    0    0  0.75254354077E+01  0.65994900851E+01  0.73915752977E+01  0.12442702002E+02  0.51100000000E-03 0. -1.
         11    1    1    2    0    0 -0.75254354077E+01 -0.65994900851E+01  0.85833381061E+01  0.13185565622E+02  0.51100000000E-03 0.  1.
<mgrwt>
<rscale>  0 0.20040216E+02</rscale>
<asrwt>0</asrwt>
<pdfrwt beam="1">  1        4 0.32002447E-02 0.20040216E+02</pdfrwt>
<pdfrwt beam="2">  1       -4 0.74256572E-03 0.20040216E+02</pdfrwt>
<totfact> 0.12638877E+06</totfact>
</mgrwt>
</event>
<event>
 5    1  0.1179870E-006  0.2000122E+02  0.7818608E-02  0.1745304E+00
         -4   -1    0    0    0  501 -0.00000000000E+00  0.00000000000E+00  0.47936737423E+01  0.49995707764E+01  0.14200000000E+01 0. -1.
          4   -1    0    0  501    0  0.00000000000E+00 -0.00000000000E+00 -0.20193381325E+02  0.20243247006E+02  0.14200000000E+01 0.  1.
       1023    2    1    2    0    0  0.00000000000E+00  0.00000000000E+00 -0.15399707583E+02  0.25242817783E+02  0.20001221362E+02 0.  0.
        -11    1    3    3    0    0  0.79155672091E+01 -0.61116545987E+01 -0.76232146832E+01  0.12574654212E+02  0.51100000000E-03 0.  1.
         11    1    3    3    0    0 -0.79155672091E+01  0.61116545987E+01 -0.77764928998E+01  0.12668163571E+02  0.51100000000E-03 0. -1.
<mgrwt>
<rscale>  0 0.20001221E+02</rscale>
<asrwt>0</asrwt>
<pdfrwt beam="2">  1        4 0.31263481E-02 0.20001221E+02</pdfrwt>
<pdfrwt beam="1">  1       -4 0.75716233E-03 0.20001221E+02</pdfrwt>
<totfact> 0.12710486E+06</totfact>
</mgrwt>
</event>
<event>
 4    1  0.1154861E-006  0.2002881E+02  0.7818608E-02  0.1744756E+00
          4   -1    0    0  501    0  0.00000000000E+00  0.00000000000E+00  0.26123982182E+02  0.26162546608E+02  0.14200000000E+01 0.  1.
         -4   -1    0    0    0  501 -0.00000000000E+00 -0.00000000000E+00 -0.36646952284E+01  0.39301897050E+01  0.14200000000E+01 0. -1.
        -11    1    1    2    0    0 -0.99312877289E+01  0.12871976766E+01  0.11275904427E+02  0.15080894361E+02  0.51100000000E-03 0.  1.
         11    1    1    2    0    0  0.99312877289E+01 -0.12871976766E+01  0.11183382526E+02  0.15011841952E+02  0.51100000000E-03 0. -1.
<mgrwt>
<rscale>  0 0.20028809E+02</rscale>
<asrwt>0</asrwt>
<pdfrwt beam="1">  1        4 0.40424632E-02 0.20028809E+02</pdfrwt>
<pdfrwt beam="2">  1       -4 0.58718843E-03 0.20028809E+02</pdfrwt>
<totfact> 0.12414530E+06</totfact>
</mgrwt>
</event>
<event>
 5    1  0.1154861E-006  0.2000021E+02  0.7818608E-02  0.1745324E+00
          4   -1    0    0  501    0  0.00000000000E+00  0.00000000000E+00  0.25425430629E+01  0.29122028134E+01  0.14200000000E+01 0. -1.
         -4   -1    0    0    0  501 -0.00000000000E+00 -0.00000000000E+00 -0.36281607175E+02  0.36309384726E+02  0.14200000000E+01 0.  1.
       1023    2    1    2    0    0  0.00000000000E+00  0.00000000000E+00 -0.33739064112E+02  0.39221587540E+02  0.20000212048E+02 0.  0.
        -11    1    3    3    0    0 -0.32470674030E+01  0.94582533843E+01 -0.16890692485E+02  0.19628996324E+02  0.51100000000E-03 0. -1.
         11    1    3    3    0    0  0.32470674030E+01 -0.94582533843E+01 -0.16848371628E+02  0.19592591216E+02  0.51100000000E-03 0.  1.
<mgrwt>
<rscale>  0 0.20000212E+02</rscale>
<asrwt>0</asrwt>
<pdfrwt beam="1">  1        4 0.42173260E-03 0.20000212E+02</pdfrwt>
<pdfrwt beam="2">  1       -4 0.56123575E-02 0.20000212E+02</pdfrwt>
<totfact> 0.11998738E+06</totfact>
</mgrwt>
</event>
<event>
 5    1  0.1154861E-006  0.2000029E+02  0.7818608E-02  0.1745322E+00
          4   -1    0    0  501    0  0.00000000000E+00  0.00000000000E+00  0.15818118106E+02  0.15881727249E+02  0.14200000000E+01 0. -1.
         -4   -1    0    0    0  501 -0.00000000000E+00 -0.00000000000E+00 -0.61648778023E+01  0.63263036851E+01  0.14200000000E+01 0.  1.
       1023    2    1    2    0    0  0.00000000000E+00  0.00000000000E+00  0.96532403038E+01  0.22208030934E+02  0.20000289738E+02 0.  0.
        -11    1    3    3    0    0 -0.10739245095E+01 -0.99422631988E+01  0.47917572864E+01  0.11088861507E+02  0.51100000000E-03 0.  1.
         11    1    3    3    0    0  0.10739245095E+01  0.99422631988E+01  0.48614830174E+01  0.11119169427E+02  0.51100000000E-03 0. -1.
<mgrwt>
<rscale>  0 0.20000290E+02</rscale>
<asrwt>0</asrwt>
<pdfrwt beam="1">  1        4 0.24508670E-02 0.20000290E+02</pdfrwt>
<pdfrwt beam="2">  1       -4 0.96575312E-03 0.20000290E+02</pdfrwt>
<totfact> 0.12883786E+06</totfact>
</mgrwt>
</event>
<event>
 5    1  0.1155009E-006  0.2000054E+02  0.7818608E-02  0.1745317E+00
         -4   -1    0    0    0  501 -0.00000000000E+00  0.00000000000E+00  0.69574161457E+01  0.71008477961E+01  0.14200000000E+01 0.  1.
          4   -1    0    0  501    0  0.00000000000E+00 -0.00000000000E+00 -0.14047685753E+02  0.14119273175E+02  0.14200000000E+01 0. -1.
       1023    2    1    2    0    0  0.00000000000E+00  0.00000000000E+00 -0.70902696069E+01  0.21220120972E+02  0.20000540266E+02 0.  0.
        -11    1    3    3    0    0 -0.11831047941E+01 -0.99298211916E+01 -0.36148421127E+01  0.10633351758E+02  0.51100000000E-03 0. -1.
         11    1    3    3    0    0  0.11831047941E+01  0.99298211916E+01 -0.34754274941E+01  0.10586769213E+02  0.51100000000E-03 0.  1.
<mgrwt>
<rscale>  0 0.20000540E+02</rscale>
<asrwt>0</asrwt>
<pdfrwt beam="2">  1        4 0.21777224E-02 0.20000540E+02</pdfrwt>
<pdfrwt beam="1">  1       -4 0.10869116E-02 0.20000540E+02</pdfrwt>
<totfact> 0.12941069E+06</totfact>
</mgrwt>
</event>
<event>
 4    1  0.1154861E-006  0.2138953E+02  0.7818608E-02  0.1719029E+00
         -4   -1    0    0    0  501 -0.00000000000E+00  0.00000000000E+00  0.33980324763E+01  0.36828012042E+01  0.14200000000E+01 0.  1.
          4   -1    0    0  501    0  0.00000000000E+00 -0.00000000000E+00 -0.32005219970E+02  0.32036705594E+02  0.14200000000E+01 0. -1.
        -11    1    1    2    0    0 -0.93159497872E+01 -0.52485246045E+01 -0.14654149363E+02  0.18140507843E+02  0.51100000000E-03 0. -1.
         11    1    1    2    0    0  0.93159497872E+01  0.52485246045E+01 -0.13953038131E+02  0.17578998956E+02  0.51100000000E-03 0.  1.
<mgrwt>
<rscale>  0 0.21389530E+02</rscale>
<asrwt>0</asrwt>
<pdfrwt beam="2">  1        4 0.49482070E-02 0.21389530E+02</pdfrwt>
<pdfrwt beam="1">  1       -4 0.54710151E-03 0.21389530E+02</pdfrwt>
<totfact> 0.10598498E+06</totfact>
</mgrwt>
</event>
<event>
 5    1  0.1154861E-006  0.2000034E+02  0.7818608E-02  0.1745321E+00
         -4   -1    0    0    0  501 -0.00000000000E+00  0.00000000000E+00  0.69039475047E+01  0.70484672907E+01  0.14200000000E+01 0. -1.
          4   -1    0    0  501    0  0.00000000000E+00 -0.00000000000E+00 -0.14154515416E+02  0.14225565249E+02  0.14200000000E+01 0.  1.
       1023    2    1    2    0    0  0.00000000000E+00  0.00000000000E+00 -0.72505679109E+01  0.21274032540E+02  0.20000343134E+02 0.  0.
        -11    1    3    3    0    0 -0.25443130937E+01  0.96709655350E+01 -0.35739662497E+01  0.10619526285E+02  0.51100000000E-03 0.  1.
         11    1    3    3    0    0  0.25443130937E+01 -0.96709655350E+01 -0.36766016612E+01  0.10654506255E+02  0.51100000000E-03 0. -1.
<mgrwt>
<rscale>  0 0.20000343E+02</rscale>
<asrwt>0</asrwt>
<pdfrwt beam="2">  1        4 0.21942000E-02 0.20000343E+02</pdfrwt>
<pdfrwt beam="1">  1       -4 0.10787281E-02 0.20000343E+02</pdfrwt>
<totfact> 0.12938161E+06</totfact>
</mgrwt>
</event>
<event>
 5    1  0.1154861E-006  0.2001154E+02  0.7818608E-02  0.1745099E+00
         -4   -1    0    0    0  501 -0.00000000000E+00  0.00000000000E+00  0.12404338409E+02  0.12485351872E+02  0.14200000000E+01 0. -1.
          4   -1    0    0  501    0  0.00000000000E+00 -0.00000000000E+00 -0.79002068368E+01  0.80268093328E+01  0.14200000000E+01 0.  1.
       1023    2    1    2    0    0  0.00000000000E+00  0.00000000000E+00  0.45041315719E+01  0.20512161204E+02  0.20011535575E+02 0.  0.
        -11    1    3    3    0    0  0.10003808143E+02  0.16949133628E+00  0.21471124481E+01  0.10233034584E+02  0.51100000000E-03 0. -1.
         11    1    3    3    0    0 -0.10003808143E+02 -0.16949133628E+00  0.23570191238E+01  0.10279126621E+02  0.51100000000E-03 0.  1.
<mgrwt>
<rscale>  0 0.20011536E+02</rscale>
<asrwt>0</asrwt>
<pdfrwt beam="2">  1        4 0.12313869E-02 0.20011536E+02</pdfrwt>
<pdfrwt beam="1">  1       -4 0.19243302E-02 0.20011536E+02</pdfrwt>
<totfact> 0.12968330E+06</totfact>
</mgrwt>
</event>
<event>
 5    1  0.1154861E-006  0.2000125E+02  0.7818608E-02  0.1745303E+00
          4   -1    0    0  501    0  0.00000000000E+00  0.00000000000E+00  0.80003720698E+02  0.80016321619E+02  0.14200000000E+01 0.  1.
         -4   -1    0    0    0  501 -0.00000000000E+00 -0.00000000000E+00 -0.82997004391E+00  0.16447645041E+01  0.14200000000E+01 0. -1.
       1023    2    1    2    0    0  0.00000000000E+00  0.00000000000E+00  0.79173750654E+02  0.81661086123E+02  0.20001254817E+02 0.  0.
        -11    1    3    3    0    0 -0.47264312253E+00 -0.99892426719E+01  0.39322669937E+02  0.40574385170E+02  0.51100000000E-03 0. -1.
         11    1    3    3    0    0  0.47264312253E+00  0.99892426719E+01  0.39851080717E+02  0.41086700954E+02  0.51100000000E-03 0.  1.
<mgrwt>
<rscale>  0 0.20001255E+02</rscale>
<asrwt>0</asrwt>
<pdfrwt beam="1">  1        4 0.12371909E-01 0.20001255E+02</pdfrwt>
<pdfrwt beam="2">  1       -4 0.19133352E-03 0.20001255E+02</pdfrwt>
<totfact> 0.10355899E+06</totfact>
</mgrwt>
</event>
<event>
 4    1  0.1230087E-006  0.2046690E+02  0.7818608E-02  0.1736199E+00
         -4   -1    0    0    0  501 -0.00000000000E+00  0.00000000000E+00  0.91476249071E+01  0.92571832348E+01  0.14200000000E+01 0. -1.
          4   -1    0    0  501    0  0.00000000000E+00 -0.00000000000E+00 -0.11225464883E+02  0.11314922088E+02  0.14200000000E+01 0.  1.
        -11    1    1    2    0    0 -0.62888195447E+01  0.79100483577E+01 -0.26613444817E+01  0.10449922057E+02  0.51100000000E-03 0.  1.
         11    1    1    2    0    0  0.62888195447E+01 -0.79100483577E+01  0.58350450537E+00  0.10122183265E+02  0.51100000000E-03 0. -1.
<mgrwt>
<rscale>  0 0.20466903E+02</rscale>
<asrwt>0</asrwt>
<pdfrwt beam="2">  1        4 0.17423035E-02 0.20466903E+02</pdfrwt>
<pdfrwt beam="1">  1       -4 0.14226358E-02 0.20466903E+02</pdfrwt>
<totfact> 0.12379545E+06</totfact>
</mgrwt>
</event>
<event>
 5    1  0.1154861E-006  0.2000059E+02  0.7818608E-02  0.1745316E+00
         -4   -1    0    0    0  501 -0.00000000000E+00  0.00000000000E+00  0.22325193418E+02  0.22370307578E+02  0.14200000000E+01 0. -1.
          4   -1    0    0  501    0  0.00000000000E+00 -0.00000000000E+00 -0.43159601540E+01  0.45435572024E+01  0.14200000000E+01 0.  1.
       1023    2    1    2    0    0  0.00000000000E+00  0.00000000000E+00  0.18009233264E+02  0.26913864780E+02  0.20000590858E+02 0.  0.
        -11    1    3    3    0    0 -0.44000843421E+01 -0.89801559044E+01  0.90642842112E+01  0.13496858553E+02  0.51100000000E-03 0. -1.
         11    1    3    3    0    0  0.44000843421E+01  0.89801559044E+01  0.89449490524E+01  0.13417006227E+02  0.51100000000E-03 0.  1.
<mgrwt>
<rscale>  0 0.20000591E+02</rscale>
<asrwt>0</asrwt>
<pdfrwt beam="2">  1        4 0.68497164E-03 0.20000591E+02</pdfrwt>
<pdfrwt beam="1">  1       -4 0.34556230E-02 0.20000591E+02</pdfrwt>
<totfact> 0.12619417E+06</totfact>
</mgrwt>
</event>
<event>
 5    1  0.1171147E-006  0.2000151E+02  0.7818608E-02  0.1745298E+00
          4   -1    0    0  501    0  0.00000000000E+00  0.00000000000E+00  0.15570029888E+02  0.15634648403E+02  0.14200000000E+01 0.  1.
         -4   -1    0    0    0  501 -0.00000000000E+00 -0.00000000000E+00 -0.62660351073E+01  0.64249199190E+01  0.14200000000E+01 0. -1.
       1023    2    1    2    0    0  0.00000000000E+00  0.00000000000E+00  0.93039947803E+01  0.22059568323E+02  0.20001505836E+02 0.  0.
        -11    1    3    3    0    0  0.47414870438E+01 -0.88050131050E+01  0.47307868928E+01  0.11063014962E+02  0.51100000000E-03 0.  1.
         11    1    3    3    0    0 -0.47414870438E+01  0.88050131050E+01  0.45732078875E+01  0.10996553360E+02  0.51100000000E-03 0. -1.
<mgrwt>
<rscale>  0 0.20001506E+02</rscale>
<asrwt>0</asrwt>
<pdfrwt beam="1">  1        4 0.24125818E-02 0.20001506E+02</pdfrwt>
<pdfrwt beam="2">  1       -4 0.98119797E-03 0.20001506E+02</pdfrwt>
<totfact> 0.12890788E+06</totfact>
</mgrwt>
</event>
<event>
 5    1  0.1154861E-006  0.2000102E+02  0.7818608E-02  0.1745308E+00
          4   -1    0    0  501    0  0.00000000000E+00  0.00000000000E+00  0.47579231295E+02  0.47600416497E+02  0.14200000000E+01 0. -1.
         -4   -1    0    0    0  501 -0.00000000000E+00 -0.00000000000E+00 -0.18379402638E+01  0.23225900227E+01  0.14200000000E+01 0.  1.
       1023    2    1    2    0    0  0.00000000000E+00  0.00000000000E+00  0.45741291032E+02  0.49923006519E+02  0.20001021841E+02 0.  0.
        -11    1    3    3    0    0 -0.96744650131E+01 -0.25327307695E+01  0.22907665305E+02  0.24995422149E+02  0.51100000000E-03 0.  1.
         11    1    3    3    0    0  0.96744650131E+01  0.25327307695E+01  0.22833625727E+02  0.24927584370E+02  0.51100000000E-03 0. -1.
<mgrwt>
<rscale>  0 0.20001022E+02</rscale>
<asrwt>0</asrwt>
<pdfrwt beam="1">  1        4 0.73587919E-02 0.20001022E+02</pdfrwt>
<pdfrwt beam="2">  1       -4 0.32167043E-03 0.20001022E+02</pdfrwt>
<totfact> 0.11522268E+06</totfact>
</mgrwt>
</event>
<event>
 5    1  0.1154861E-006  0.2000013E+02  0.7818608E-02  0.1745326E+00
         -4   -1    0    0    0  501 -0.00000000000E+00  0.00000000000E+00  0.12861030773E+02  0.12939185158E+02  0.14200000000E+01 0.  1.
          4   -1    0    0  501    0  0.00000000000E+00 -0.00000000000E+00 -0.76079265485E+01  0.77393117503E+01  0.14200000000E+01 0. -1.
       1023    2    1    2    0    0  0.00000000000E+00  0.00000000000E+00  0.52531042246E+01  0.20678496908E+02  0.20000128259E+02 0.  0.
        -11    1    3    3    0    0  0.94474509991E+01  0.32782542858E+01  0.26256321599E+01  0.10339014752E+02  0.51100000000E-03 0.  1.
         11    1    3    3    0    0 -0.94474509991E+01 -0.32782542858E+01  0.26274720647E+01  0.10339482156E+02  0.51100000000E-03 0. -1.
<mgrwt>
<rscale>  0 0.20000128E+02</rscale>
<asrwt>0</asrwt>
<pdfrwt beam="2">  1        4 0.11865687E-02 0.20000128E+02</pdfrwt>
<pdfrwt beam="1">  1       -4 0.19947385E-02 0.20000128E+02</pdfrwt>
<totfact> 0.12973600E+06</totfact>
</mgrwt>
</event>
<event>
 5    1  0.1154861E-006  0.2000071E+02  0.7818608E-02  0.1745314E+00
          4   -1    0    0  501    0  0.00000000000E+00  0.00000000000E+00  0.92609646262E+00  0.16953037067E+01  0.14200000000E+01 0.  1.
         -4   -1    0    0    0  501 -0.00000000000E+00 -0.00000000000E+00 -0.75522712946E+02  0.75536061393E+02  0.14200000000E+01 0. -1.
       1023    2    1    2    0    0  0.00000000000E+00  0.00000000000E+00 -0.74596616484E+02  0.77231365100E+02  0.20000714096E+02 0.  0.
        -11    1    3    3    0    0  0.95839439586E+01 -0.28557171349E+01 -0.37322321685E+02  0.38638876774E+02  0.51100000000E-03 0. -1.
         11    1    3    3    0    0 -0.95839439586E+01  0.28557171349E+01 -0.37274294799E+02  0.38592488326E+02  0.51100000000E-03 0.  1.
<mgrwt>
<rscale>  0 0.20000714E+02</rscale>
<asrwt>0</asrwt>
<pdfrwt beam="1">  1        4 0.20267303E-03 0.20000714E+02</pdfrwt>
<pdfrwt beam="2">  1       -4 0.11679072E-01 0.20000714E+02</pdfrwt>
<totfact> 0.10501852E+06</totfact>
</mgrwt>
</event>
<event>
 5    1  0.1154861E-006  0.2000183E+02  0.7818608E-02  0.1745292E+00
         -4   -1    0    0    0  501 -0.00000000000E+00  0.00000000000E+00  0.24046076711E+01  0.27925862658E+01  0.14200000000E+01 0.  1.
          4   -1    0    0  501    0  0.00000000000E+00 -0.00000000000E+00 -0.38087138348E+02  0.38113600034E+02  0.14200000000E+01 0. -1.
       1023    2    1    2    0    0  0.00000000000E+00  0.00000000000E+00 -0.35682530677E+02  0.40906186299E+02  0.20001826968E+02 0.  0.
        -11    1    3    3    0    0 -0.45603244430E+01 -0.89005023870E+01 -0.17948872387E+02  0.20546958948E+02  0.51100000000E-03 0. -1.
         11    1    3    3    0    0  0.45603244430E+01  0.89005023870E+01 -0.17733658290E+02  0.20359227352E+02  0.51100000000E-03 0.  1.
<mgrwt>
<rscale>  0 0.20001827E+02</rscale>
<asrwt>0</asrwt>
<pdfrwt beam="2">  1        4 0.58914394E-02 0.20001827E+02</pdfrwt>
<pdfrwt beam="1">  1       -4 0.40181969E-03 0.20001827E+02</pdfrwt>
<totfact> 0.11918436E+06</totfact>
</mgrwt>
</event>
<event>
 4    1  0.5475820E-006  0.2051034E+02  0.7818608E-02  0.1735366E+00
         -4   -1    0    0    0  501 -0.00000000000E+00  0.00000000000E+00  0.39022227238E+02  0.39048055247E+02  0.14200000000E+01 0.  1.
          4   -1    0    0  501    0  0.00000000000E+00 -0.00000000000E+00 -0.24793883589E+01  0.28572305882E+01  0.14200000000E+01 0. -1.
        -11    1    1    2    0    0 -0.41396335746E+01 -0.92047601373E+01  0.21985367638E+02  0.24191332451E+02  0.51100000000E-03 0.  1.
         11    1    1    2    0    0  0.41396335746E+01  0.92047601373E+01  0.14557471241E+02  0.17713953384E+02  0.51100000000E-03 0. -1.
<mgrwt>
<rscale>  0 0.20510337E+02</rscale>
<asrwt>0</asrwt>
<pdfrwt beam="2">  1        4 0.41249592E-03 0.20510337E+02</pdfrwt>
<pdfrwt beam="1">  1       -4 0.60344712E-02 0.20510337E+02</pdfrwt>
<totfact> 0.11281267E+06</totfact>
</mgrwt>
</event>
<event>
 5    1  0.1189695E-006  0.2000077E+02  0.7818608E-02  0.1745313E+00
         -4   -1    0    0    0  501 -0.00000000000E+00  0.00000000000E+00  0.71635304630E+01  0.73029150820E+01  0.14200000000E+01 0. -1.
          4   -1    0    0  501    0  0.00000000000E+00 -0.00000000000E+00 -0.13649592008E+02  0.13723256246E+02  0.14200000000E+01 0.  1.
       1023    2    1    2    0    0  0.00000000000E+00  0.00000000000E+00 -0.64860615454E+01  0.21026171328E+02  0.20000772144E+02 0.  0.
        -11    1    3    3    0    0  0.95596877988E+01 -0.29351776648E+01 -0.31700255876E+01  0.10490565343E+02  0.51100000000E-03 0.  1.
         11    1    3    3    0    0 -0.95596877988E+01  0.29351776648E+01 -0.33160359579E+01  0.10535605985E+02  0.51100000000E-03 0. -1.
<mgrwt>
<rscale>  0 0.20000772E+02</rscale>
<asrwt>0</asrwt>
<pdfrwt beam="2">  1        4 0.21163256E-02 0.20000772E+02</pdfrwt>
<pdfrwt beam="1">  1       -4 0.11184700E-02 0.20000772E+02</pdfrwt>
<totfact> 0.12952185E+06</totfact>
</mgrwt>
</event>
<event>
 5    1  0.1172196E-006  0.2000153E+02  0.7818608E-02  0.1745298E+00
         -4   -1    0    0    0  501 -0.00000000000E+00  0.00000000000E+00  0.21696679567E+02  0.21743097852E+02  0.14200000000E+01 0.  1.
          4   -1    0    0  501    0  0.00000000000E+00 -0.00000000000E+00 -0.44476517280E+01  0.46688334617E+01  0.14200000000E+01 0. -1.
       1023    2    1    2    0    0  0.00000000000E+00  0.00000000000E+00  0.17249027839E+02  0.26411931314E+02  0.20001528801E+02 0.  0.
        -11    1    3    3    0    0 -0.86256635116E+01  0.50599977146E+01  0.84948600603E+01  0.13121291689E+02  0.51100000000E-03 0.  1.
         11    1    3    3    0    0  0.86256635116E+01 -0.50599977146E+01  0.87541677785E+01  0.13290639625E+02  0.51100000000E-03 0. -1.
<mgrwt>
<rscale>  0 0.20001529E+02</rscale>
<asrwt>0</asrwt>
<pdfrwt beam="2">  1        4 0.70483873E-03 0.20001529E+02</pdfrwt>
<pdfrwt beam="1">  1       -4 0.33585353E-02 0.20001529E+02</pdfrwt>
<totfact> 0.12645590E+06</totfact>
</mgrwt>
</event>
<event>
 4    1  0.1154861E-006  0.2005398E+02  0.7818608E-02  0.1744257E+00
          4   -1    0    0  501    0  0.00000000000E+00  0.00000000000E+00  0.32007005662E+01  0.35015545282E+01  0.14200000000E+01 0.  1.
         -4   -1    0    0    0  501 -0.00000000000E+00 -0.00000000000E+00 -0.29683426130E+02  0.29717371802E+02  0.14200000000E+01 0. -1.
        -11    1    1    2    0    0  0.77543677969E+01 -0.63282760934E+01 -0.12242960569E+02  0.15813518963E+02  0.51100000000E-03 0. -1.
         11    1    1    2    0    0 -0.77543677969E+01  0.63282760934E+01 -0.14239764995E+02  0.17405407367E+02  0.51100000000E-03 0.  1.
<mgrwt>
<rscale>  0 0.20053985E+02</rscale>
<asrwt>0</asrwt>
<pdfrwt beam="1">  1        4 0.51816931E-03 0.20053985E+02</pdfrwt>
<pdfrwt beam="2">  1       -4 0.45924346E-02 0.20053985E+02</pdfrwt>
<totfact> 0.12223599E+06</totfact>
</mgrwt>
</event>
<event>
 5    1  0.1154861E-006  0.2000010E+02  0.7818608E-02  0.1745326E+00
         -4   -1    0    0    0  501 -0.00000000000E+00  0.00000000000E+00  0.11693548929E+03  0.11694411082E+03  0.14200000000E+01 0. -1.
          4   -1    0    0  501    0  0.00000000000E+00 -0.00000000000E+00 -0.25099957646E+00  0.14420127556E+01  0.14200000000E+01 0.  1.
       1023    2    1    2    0    0  0.00000000000E+00  0.00000000000E+00  0.11668448972E+03  0.11838612358E+03  0.20000102889E+02 0.  0.
        -11    1    3    3    0    0  0.71563411801E+01 -0.69847980378E+01  0.58461502696E+02  0.59310605464E+02  0.51100000000E-03 0.  1.
         11    1    3    3    0    0 -0.71563411801E+01  0.69847980378E+01  0.58222987019E+02  0.59075518114E+02  0.51100000000E-03 0. -1.
<mgrwt>
<rscale>  0 0.20000103E+02</rscale>
<asrwt>0</asrwt>
<pdfrwt beam="2">  1        4 0.13089489E-03 0.20000103E+02</pdfrwt>
<pdfrwt beam="1">  1       -4 0.18082359E-01 0.20000103E+02</pdfrwt>
<totfact> 0.93065477E+05</totfact>
</mgrwt>
</event>
<event>
 4    1  0.1154861E-006  0.2001689E+02  0.7818608E-02  0.1744992E+00
         -4   -1    0    0    0  501 -0.00000000000E+00  0.00000000000E+00  0.35348614727E+01  0.38094153923E+01  0.14200000000E+01 0. -1.
          4   -1    0    0  501    0  0.00000000000E+00 -0.00000000000E+00 -0.26984180978E+02  0.27021517779E+02  0.14200000000E+01 0.  1.
        -11    1    1    2    0    0 -0.72193107295E+01  0.69286863337E+01 -0.12047089383E+02  0.15660699364E+02  0.51100000000E-03 0. -1.
         11    1    1    2    0    0  0.72193107295E+01 -0.69286863337E+01 -0.11402230123E+02  0.15170233807E+02  0.51100000000E-03 0.  1.
<mgrwt>
<rscale>  0 0.20016889E+02</rscale>
<asrwt>0</asrwt>
<pdfrwt beam="2">  1        4 0.41754039E-02 0.20016889E+02</pdfrwt>
<pdfrwt beam="1">  1       -4 0.56781645E-03 0.20016889E+02</pdfrwt>
<totfact> 0.12391299E+06</totfact>
</mgrwt>
</event>
<event>
 5    1  0.1154861E-006  0.2000203E+02  0.7818608E-02  0.1745288E+00
         -4   -1    0    0    0  501 -0.00000000000E+00  0.00000000000E+00  0.27625594195E+02  0.27662065264E+02  0.14200000000E+01 0. -1.
          4   -1    0    0  501    0  0.00000000000E+00 -0.00000000000E+00 -0.34408684550E+01  0.37223615789E+01  0.14200000000E+01 0.  1.
       1023    2    1    2    0    0  0.00000000000E+00  0.00000000000E+00  0.24184725740E+02  0.31384426843E+02  0.20002032124E+02 0.  0.
        -11    1    3    3    0    0  0.82281335408E+01 -0.56846275652E+01  0.12004300977E+02  0.15624353245E+02  0.51100000000E-03 0. -1.
         11    1    3    3    0    0 -0.82281335408E+01  0.56846275652E+01  0.12180424763E+02  0.15760073597E+02  0.51100000000E-03 0.  1.
<mgrwt>
<rscale>  0 0.20002032E+02</rscale>
<asrwt>0</asrwt>
<pdfrwt beam="2">  1        4 0.55382318E-03 0.20002032E+02</pdfrwt>
<pdfrwt beam="1">  1       -4 0.42745501E-02 0.20002032E+02</pdfrwt>
<totfact> 0.12381467E+06</totfact>
</mgrwt>
</event>
<event>
 5    1  0.1154861E-006  0.2000070E+02  0.7818608E-02  0.1745314E+00
         -4   -1    0    0    0  501 -0.00000000000E+00  0.00000000000E+00  0.52502527901E+02  0.52521727275E+02  0.14200000000E+01 0. -1.
          4   -1    0    0  501    0  0.00000000000E+00 -0.00000000000E+00 -0.16178103858E+01  0.21526055014E+01  0.14200000000E+01 0.  1.
       1023    2    1    2    0    0  0.00000000000E+00  0.00000000000E+00  0.50884717515E+02  0.54674332777E+02  0.20000704687E+02 0.  0.
        -11    1    3    3    0    0  0.93426578767E+01  0.35666535910E+01  0.25518346450E+02  0.27407887183E+02  0.51100000000E-03 0. -1.
         11    1    3    3    0    0 -0.93426578767E+01 -0.35666535910E+01  0.25366371065E+02  0.27266445593E+02  0.51100000000E-03 0.  1.
<mgrwt>
<rscale>  0 0.20000705E+02</rscale>
<asrwt>0</asrwt>
<pdfrwt beam="2">  1        4 0.29150888E-03 0.20000705E+02</pdfrwt>
<pdfrwt beam="1">  1       -4 0.81199266E-02 0.20000705E+02</pdfrwt>
<totfact> 0.11327185E+06</totfact>
</mgrwt>
</event>
<event>
 5    1  0.1154861E-006  0.2000603E+02  0.7818608E-02  0.1745208E+00
          4   -1    0    0  501    0  0.00000000000E+00  0.00000000000E+00  0.39598714969E+01  0.42067781344E+01  0.14200000000E+01 0. -1.
         -4   -1    0    0    0  501 -0.00000000000E+00 -0.00000000000E+00 -0.24236290272E+02  0.24277853409E+02  0.14200000000E+01 0.  1.
       1023    2    1    2    0    0  0.00000000000E+00  0.00000000000E+00 -0.20276418776E+02  0.28484631544E+02  0.20006025988E+02 0.  0.
        -11    1    3    3    0    0 -0.81578466002E+01  0.57839440061E+01 -0.98018805812E+01  0.14002904435E+02  0.51100000000E-03 0.  1.
         11    1    3    3    0    0  0.81578466002E+01 -0.57839440061E+01 -0.10474538194E+02  0.14481727109E+02  0.51100000000E-03 0. -1.
<mgrwt>
<rscale>  0 0.20006026E+02</rscale>
<asrwt>0</asrwt>
<pdfrwt beam="1">  1        4 0.63140100E-03 0.20006026E+02</pdfrwt>
<pdfrwt beam="2">  1       -4 0.37508499E-02 0.20006026E+02</pdfrwt>
<totfact> 0.12527982E+06</totfact>
</mgrwt>
</event>
<event>
 5    1  0.1173842E-006  0.2000062E+02  0.7818608E-02  0.1745316E+00
         -4   -1    0    0    0  501 -0.00000000000E+00  0.00000000000E+00  0.13273112757E+02  0.13348854717E+02  0.14200000000E+01 0.  1.
          4   -1    0    0  501    0  0.00000000000E+00 -0.00000000000E+00 -0.73693458603E+01  0.75049089540E+01  0.14200000000E+01 0. -1.
       1023    2    1    2    0    0  0.00000000000E+00  0.00000000000E+00  0.59037668969E+01  0.20853763671E+02  0.20000624882E+02 0.  0.
        -11    1    3    3    0    0 -0.13649514385E+01  0.99067227571E+01  0.29511868537E+01  0.10426684628E+02  0.51100000000E-03 0.  1.
         11    1    3    3    0    0  0.13649514385E+01 -0.99067227571E+01  0.29525800433E+01  0.10427079044E+02  0.51100000000E-03 0. -1.
<mgrwt>
<rscale>  0 0.20000625E+02</rscale>
<asrwt>0</asrwt>
<pdfrwt beam="2">  1        4 0.11499998E-02 0.20000625E+02</pdfrwt>
<pdfrwt beam="1">  1       -4 0.20582716E-02 0.20000625E+02</pdfrwt>
<totfact> 0.12962567E+06</totfact>
</mgrwt>
</event>
<event>
 5    1  0.1154861E-006  0.2000042E+02  0.7818608E-02  0.1745320E+00
          4   -1    0    0  501    0  0.00000000000E+00  0.00000000000E+00  0.57177433143E+01  0.58914334935E+01  0.14200000000E+01 0. -1.
         -4   -1    0    0    0  501 -0.00000000000E+00 -0.00000000000E+00 -0.17024787615E+02  0.17083904511E+02  0.14200000000E+01 0.  1.
       1023    2    1    2    0    0  0.00000000000E+00  0.00000000000E+00 -0.11307044300E+02  0.22975338004E+02  0.20000422635E+02 0.  0.
        -11    1    3    3    0    0  0.89614114014E+01  0.44378899951E+01 -0.57105468040E+01  0.11515733019E+02  0.51100000000E-03 0. -1.
         11    1    3    3    0    0 -0.89614114014E+01 -0.44378899951E+01 -0.55964974964E+01  0.11459604985E+02  0.51100000000E-03 0.  1.
<mgrwt>
<rscale>  0 0.20000423E+02</rscale>
<asrwt>0</asrwt>
<pdfrwt beam="1">  1        4 0.89756106E-03 0.20000423E+02</pdfrwt>
<pdfrwt beam="2">  1       -4 0.26371063E-02 0.20000423E+02</pdfrwt>
<totfact> 0.12839435E+06</totfact>
</mgrwt>
</event>
<event>
 5    1  0.1154861E-006  0.2000014E+02  0.7818608E-02  0.1745325E+00
         -4   -1    0    0    0  501 -0.00000000000E+00  0.00000000000E+00  0.15842647231E+01  0.21275090395E+01  0.14200000000E+01 0. -1.
          4   -1    0    0  501    0  0.00000000000E+00 -0.00000000000E+00 -0.53329296909E+02  0.53348198740E+02  0.14200000000E+01 0.  1.
       1023    2    1    2    0    0  0.00000000000E+00  0.00000000000E+00 -0.51745032186E+02  0.55475707780E+02  0.20000144943E+02 0.  0.
        -11    1    3    3    0    0  0.60097946632E+01  0.79927333883E+01 -0.25887774019E+02  0.27752085739E+02  0.51100000000E-03 0. -1.
         11    1    3    3    0    0 -0.60097946632E+01 -0.79927333883E+01 -0.25857258167E+02  0.27723622041E+02  0.51100000000E-03 0.  1.
<mgrwt>
<rscale>  0 0.20000145E+02</rscale>
<asrwt>0</asrwt>
<pdfrwt beam="2">  1        4 0.82477480E-02 0.20000145E+02</pdfrwt>
<pdfrwt beam="1">  1       -4 0.28697509E-03 0.20000145E+02</pdfrwt>
<totfact> 0.11295710E+06</totfact>
</mgrwt>
</event>
<event>
 5    1  0.1154861E-006  0.2000071E+02  0.7818608E-02  0.1745314E+00
         -4   -1    0    0    0  501 -0.00000000000E+00  0.00000000000E+00  0.47982945818E+02  0.48003952851E+02  0.14200000000E+01 0.  1.
          4   -1    0    0  501    0  0.00000000000E+00 -0.00000000000E+00 -0.18183165739E+01  0.23070923611E+01  0.14200000000E+01 0. -1.
       1023    2    1    2    0    0  0.00000000000E+00  0.00000000000E+00  0.46164629244E+02  0.50311045212E+02  0.20000706916E+02 0.  0.
        -11    1    3    3    0    0  0.25858065277E-01  0.10000219013E+02  0.23195372587E+02  0.25259262829E+02  0.51100000000E-03 0. -1.
         11    1    3    3    0    0 -0.25858065277E-01 -0.10000219013E+02  0.22969256657E+02  0.25051782383E+02  0.51100000000E-03 0.  1.
<mgrwt>
<rscale>  0 0.20000707E+02</rscale>
<asrwt>0</asrwt>
<pdfrwt beam="2">  1        4 0.31895509E-03 0.20000707E+02</pdfrwt>
<pdfrwt beam="1">  1       -4 0.74212053E-02 0.20000707E+02</pdfrwt>
<totfact> 0.11506335E+06</totfact>
</mgrwt>
</event>
<event>
 5    1  0.1154861E-006  0.2000031E+02  0.7818608E-02  0.1745322E+00
         -4   -1    0    0    0  501 -0.00000000000E+00  0.00000000000E+00  0.17066451818E+01  0.22201436387E+01  0.14200000000E+01 0.  1.
          4   -1    0    0  501    0  0.00000000000E+00 -0.00000000000E+00 -0.50409000726E+02  0.50428997156E+02  0.14200000000E+01 0. -1.
       1023    2    1    2    0    0  0.00000000000E+00  0.00000000000E+00 -0.48702355544E+02  0.52649140795E+02  0.20000314770E+02 0.  0.
        -11    1    3    3    0    0 -0.93584513609E+01  0.35244188947E+01 -0.24434714773E+02  0.26401845139E+02  0.51100000000E-03 0.  1.
         11    1    3    3    0    0  0.93584513609E+01 -0.35244188947E+01 -0.24267640771E+02  0.26247295656E+02  0.51100000000E-03 0. -1.
<mgrwt>
<rscale>  0 0.20000315E+02</rscale>
<asrwt>0</asrwt>
<pdfrwt beam="2">  1        4 0.77962680E-02 0.20000315E+02</pdfrwt>
<pdfrwt beam="1">  1       -4 0.30359890E-03 0.20000315E+02</pdfrwt>
<totfact> 0.11409863E+06</totfact>
</mgrwt>
</event>
<event>
 4    1  0.1154861E-006  0.2003083E+02  0.7818608E-02  0.1744716E+00
          4   -1    0    0  501    0  0.00000000000E+00  0.00000000000E+00  0.95522951149E+00  0.17113922460E+01  0.14200000000E+01 0.  1.
         -4   -1    0    0    0  501 -0.00000000000E+00 -0.00000000000E+00 -0.74467814326E+02  0.74481351830E+02  0.14200000000E+01 0. -1.
        -11    1    1    2    0    0  0.81151496453E+01  0.58667425861E+01 -0.36052765460E+02  0.37417592386E+02  0.51100000000E-03 0.  1.
         11    1    1    2    0    0 -0.81151496453E+01 -0.58667425861E+01 -0.37459819354E+02  0.38775151691E+02  0.51100000000E-03 0. -1.
<mgrwt>
<rscale>  0 0.20030829E+02</rscale>
<asrwt>0</asrwt>
<pdfrwt beam="1">  1        4 0.20616616E-03 0.20030829E+02</pdfrwt>
<pdfrwt beam="2">  1       -4 0.11515791E-01 0.20030829E+02</pdfrwt>
<totfact> 0.10504925E+06</totfact>
</mgrwt>
</event>
<event>
 5    1  0.1154861E-006  0.2001110E+02  0.7818608E-02  0.1745107E+00
         -4   -1    0    0    0  501 -0.00000000000E+00  0.00000000000E+00  0.23640434091E+02  0.23683042964E+02  0.14200000000E+01 0. -1.
          4   -1    0    0  501    0  0.00000000000E+00 -0.00000000000E+00 -0.40678455497E+01  0.43085690683E+01  0.14200000000E+01 0.  1.
       1023    2    1    2    0    0  0.00000000000E+00  0.00000000000E+00  0.19572588542E+02  0.27991612032E+02  0.20011099968E+02 0.  0.
        -11    1    3    3    0    0  0.13729066158E+01 -0.99090641132E+01  0.10053923390E+02  0.14182940456E+02  0.51100000000E-03 0.  1.
         11    1    3    3    0    0 -0.13729066158E+01  0.99090641132E+01  0.95186651512E+01  0.13808671576E+02  0.51100000000E-03 0. -1.
<mgrwt>
<rscale>  0 0.20011100E+02</rscale>
<asrwt>0</asrwt>
<pdfrwt beam="2">  1        4 0.64761716E-03 0.20011100E+02</pdfrwt>
<pdfrwt beam="1">  1       -4 0.36587848E-02 0.20011100E+02</pdfrwt>
<totfact> 0.12547832E+06</totfact>
</mgrwt>
</event>
<event>
 5    1  0.1154861E-006  0.2000035E+02  0.7818608E-02  0.1745321E+00
          4   -1    0    0  501    0  0.00000000000E+00  0.00000000000E+00  0.55979496009E+01  0.57752436948E+01  0.14200000000E+01 0. -1.
         -4   -1    0    0    0  501 -0.00000000000E+00 -0.00000000000E+00 -0.17379117186E+02  0.17437032838E+02  0.14200000000E+01 0.  1.
       1023    2    1    2    0    0  0.00000000000E+00  0.00000000000E+00 -0.11781167586E+02  0.23212276532E+02  0.20000346801E+02 0.  0.
        -11    1    3    3    0    0 -0.99829693551E+01  0.58617749095E+00 -0.58747308225E+01  0.11598092244E+02  0.51100000000E-03 0.  1.
         11    1    3    3    0    0  0.99829693551E+01 -0.58617749095E+00 -0.59064367630E+01  0.11614184289E+02  0.51100000000E-03 0. -1.
<mgrwt>
<rscale>  0 0.20000347E+02</rscale>
<asrwt>0</asrwt>
<pdfrwt beam="1">  1        4 0.87931608E-03 0.20000347E+02</pdfrwt>
<pdfrwt beam="2">  1       -4 0.26918034E-02 0.20000347E+02</pdfrwt>
<totfact> 0.12825993E+06</totfact>
</mgrwt>
</event>
<event>
 4    1  0.1154861E-006  0.2006435E+02  0.7818608E-02  0.1744052E+00
          4   -1    0    0  501    0  0.00000000000E+00  0.00000000000E+00  0.24671436317E+02  0.24712267600E+02  0.14200000000E+01 0. -1.
         -4   -1    0    0    0  501 -0.00000000000E+00 -0.00000000000E+00 -0.39101565302E+01  0.41600149147E+01  0.14200000000E+01 0.  1.
        -11    1    1    2    0    0  0.82799678415E+01 -0.56447724644E+01  0.97008572748E+01  0.13947327907E+02  0.51100000000E-03 0. -1.
         11    1    1    2    0    0 -0.82799678415E+01  0.56447724644E+01  0.11060422512E+02  0.14924954608E+02  0.51100000000E-03 0.  1.
<mgrwt>
<rscale>  0 0.20064345E+02</rscale>
<asrwt>0</asrwt>
<pdfrwt beam="1">  1        4 0.38179663E-02 0.20064345E+02</pdfrwt>
<pdfrwt beam="2">  1       -4 0.62392329E-03 0.20064345E+02</pdfrwt>
<totfact> 0.12433575E+06</totfact>
</mgrwt>
</event>
<event>
 5    1  0.1154861E-006  0.2000009E+02  0.7818608E-02  0.1745326E+00
         -4   -1    0    0    0  501 -0.00000000000E+00  0.00000000000E+00  0.85764536514E+01  0.86932132859E+01  0.14200000000E+01 0.  1.
          4   -1    0    0  501    0  0.00000000000E+00 -0.00000000000E+00 -0.11420070109E+02  0.11508014655E+02  0.14200000000E+01 0. -1.
       1023    2    1    2    0    0  0.00000000000E+00  0.00000000000E+00 -0.28436164578E+01  0.20201227941E+02  0.20000086394E+02 0.  0.
        -11    1    3    3    0    0  0.96608166554E+01 -0.25825340505E+01 -0.14200277762E+01  0.10100363346E+02  0.51100000000E-03 0.  1.
         11    1    3    3    0    0 -0.96608166554E+01  0.25825340505E+01 -0.14235886816E+01  0.10100864595E+02  0.51100000000E-03 0. -1.
<mgrwt>
<rscale>  0 0.20000086E+02</rscale>
<asrwt>0</asrwt>
<pdfrwt beam="2">  1        4 0.17726803E-02 0.20000086E+02</pdfrwt>
<pdfrwt beam="1">  1       -4 0.13352009E-02 0.20000086E+02</pdfrwt>
<totfact> 0.13001955E+06</totfact>
</mgrwt>
</event>
<event>
 5    1  0.1154861E-006  0.2000017E+02  0.7818608E-02  0.1745325E+00
          4   -1    0    0  501    0  0.00000000000E+00  0.00000000000E+00  0.35692521169E+02  0.35720756815E+02  0.14200000000E+01 0. -1.
         -4   -1    0    0    0  501 -0.00000000000E+00 -0.00000000000E+00 -0.25905074876E+01  0.29541714648E+01  0.14200000000E+01 0.  1.
       1023    2    1    2    0    0  0.00000000000E+00  0.00000000000E+00  0.33102013682E+02  0.38674928280E+02  0.20000169190E+02 0.  0.
        -11    1    3    3    0    0  0.99749719234E+01 -0.70733953223E+00  0.16481350574E+02  0.19277845084E+02  0.51100000000E-03 0.  1.
         11    1    3    3    0    0 -0.99749719234E+01  0.70733953223E+00  0.16620663107E+02  0.19397083195E+02  0.51100000000E-03 0. -1.
<mgrwt>
<rscale>  0 0.20000169E+02</rscale>
<asrwt>0</asrwt>
<pdfrwt beam="1">  1        4 0.55213031E-02 0.20000169E+02</pdfrwt>
<pdfrwt beam="2">  1       -4 0.42868575E-03 0.20000169E+02</pdfrwt>
<totfact> 0.12024530E+06</totfact>
</mgrwt>
</event>
<event>
 5    1  0.1154861E-006  0.2000259E+02  0.7818608E-02  0.1745277E+00
          4   -1    0    0  501    0  0.00000000000E+00  0.00000000000E+00  0.28950850387E+02  0.28985654005E+02  0.14200000000E+01 0. -1.
         -4   -1    0    0    0  501 -0.00000000000E+00 -0.00000000000E+00 -0.32705760138E+01  0.35655388740E+01  0.14200000000E+01 0.  1.
       1023    2    1    2    0    0  0.00000000000E+00  0.00000000000E+00  0.25680274373E+02  0.32551192879E+02  0.20002591482E+02 0.  0.
        -11    1    3    3    0    0 -0.72910537130E+01  0.68454862237E+01  0.12963755245E+02  0.16373121150E+02  0.51100000000E-03 0.  1.
         11    1    3    3    0    0  0.72910537130E+01 -0.68454862237E+01  0.12716519128E+02  0.16178071729E+02  0.51100000000E-03 0. -1.
<mgrwt>
<rscale>  0 0.20002591E+02</rscale>
<asrwt>0</asrwt>
<pdfrwt beam="1">  1        4 0.44793438E-02 0.20002591E+02</pdfrwt>
<pdfrwt beam="2">  1       -4 0.52853217E-03 0.20002591E+02</pdfrwt>
<totfact> 0.12321167E+06</totfact>
</mgrwt>
</event>
<event>
 5    1  0.1154861E-006  0.2000946E+02  0.7818608E-02  0.1745140E+00
         -4   -1    0    0    0  501 -0.00000000000E+00  0.00000000000E+00  0.36525624743E+00  0.14662237641E+01  0.14200000000E+01 0. -1.
          4   -1    0    0  501    0  0.00000000000E+00 -0.00000000000E+00 -0.10819619422E+03  0.10820551208E+03  0.14200000000E+01 0.  1.
       1023    2    1    2    0    0  0.00000000000E+00  0.00000000000E+00 -0.10783093798E+03  0.10967173584E+03  0.20009459218E+02 0.  0.
        -11    1    3    3    0    0 -0.70498523317E+01  0.70979782339E+01 -0.53292914319E+02  0.54223762593E+02  0.51100000000E-03 0.  1.
         11    1    3    3    0    0  0.70498523317E+01 -0.70979782339E+01 -0.54538023658E+02  0.55447973251E+02  0.51100000000E-03 0. -1.
<mgrwt>
<rscale>  0 0.20009459E+02</rscale>
<asrwt>0</asrwt>
<pdfrwt beam="2">  1        4 0.16730965E-01 0.20009459E+02</pdfrwt>
<pdfrwt beam="1">  1       -4 0.14159992E-03 0.20009459E+02</pdfrwt>
<totfact> 0.95251152E+05</totfact>
</mgrwt>
</event>
<event>
 4    1  0.1154861E-006  0.2003159E+02  0.7818608E-02  0.1744701E+00
          4   -1    0    0  501    0  0.00000000000E+00  0.00000000000E+00  0.69879650681E+02  0.69894076855E+02  0.14200000000E+01 0.  1.
         -4   -1    0    0    0  501 -0.00000000000E+00 -0.00000000000E+00 -0.10661818207E+01  0.17757093441E+01  0.14200000000E+01 0. -1.
        -11    1    1    2    0    0 -0.18548210818E+01  0.98394575024E+01  0.33523770577E+02  0.34987118761E+02  0.51100000000E-03 0. -1.
         11    1    1    2    0    0  0.18548210818E+01 -0.98394575024E+01  0.35289698283E+02  0.36682667438E+02  0.51100000000E-03 0.  1.
<mgrwt>
<rscale>  0 0.20031594E+02</rscale>
<asrwt>0</asrwt>
<pdfrwt beam="1">  1        4 0.10806406E-01 0.20031594E+02</pdfrwt>
<pdfrwt beam="2">  1       -4 0.21971667E-03 0.20031594E+02</pdfrwt>
<totfact> 0.10658434E+06</totfact>
</mgrwt>
</event>
<event>
 5    1  0.1154861E-006  0.2000008E+02  0.7818608E-02  0.1745326E+00
          4   -1    0    0  501    0  0.00000000000E+00  0.00000000000E+00  0.19582675969E+02  0.19634092750E+02  0.14200000000E+01 0. -1.
         -4   -1    0    0    0  501 -0.00000000000E+00 -0.00000000000E+00 -0.49484999646E+01  0.51482086107E+01  0.14200000000E+01 0.  1.
       1023    2    1    2    0    0  0.00000000000E+00  0.00000000000E+00  0.14634176005E+02  0.24782301361E+02  0.20000083835E+02 0.  0.
        -11    1    3    3    0    0  0.17603661819E+01  0.98438413477E+01  0.72834600131E+01  0.12371293045E+02  0.51100000000E-03 0.  1.
         11    1    3    3    0    0 -0.17603661819E+01 -0.98438413477E+01  0.73507159917E+01  0.12411008316E+02  0.51100000000E-03 0. -1.
<mgrwt>
<rscale>  0 0.20000084E+02</rscale>
<asrwt>0</asrwt>
<pdfrwt beam="1">  1        4 0.30320367E-02 0.20000084E+02</pdfrwt>
<pdfrwt beam="2">  1       -4 0.78062502E-03 0.20000084E+02</pdfrwt>
<totfact> 0.12737656E+06</totfact>
</mgrwt>
</event>
<event>
 5    1  0.1154861E-006  0.2000222E+02  0.7818608E-02  0.1745284E+00
         -4   -1    0    0    0  501 -0.00000000000E+00  0.00000000000E+00  0.46590038476E+01  0.48705971761E+01  0.14200000000E+01 0.  1.
          4   -1    0    0  501    0  0.00000000000E+00 -0.00000000000E+00 -0.20755504344E+02  0.20804022702E+02  0.14200000000E+01 0. -1.
       1023    2    1    2    0    0  0.00000000000E+00  0.00000000000E+00 -0.16096500497E+02  0.25674619878E+02  0.20002219318E+02 0.  0.
        -11    1    3    3    0    0 -0.63104035437E+01  0.77588981447E+01 -0.80195240171E+01  0.12819300255E+02  0.51100000000E-03 0. -1.
         11    1    3    3    0    0  0.63104035437E+01 -0.77588981447E+01 -0.80769764797E+01  0.12855319623E+02  0.51100000000E-03 0.  1.
<mgrwt>
<rscale>  0 0.20002219E+02</rscale>
<asrwt>0</asrwt>
<pdfrwt beam="2">  1        4 0.32131631E-02 0.20002219E+02</pdfrwt>
<pdfrwt beam="1">  1       -4 0.73677842E-03 0.20002219E+02</pdfrwt>
<totfact> 0.12685253E+06</totfact>
</mgrwt>
</event>
<event>
 5    1  0.1154861E-006  0.2000020E+02  0.7818608E-02  0.1745324E+00
          4   -1    0    0  501    0  0.00000000000E+00  0.00000000000E+00  0.37614119872E+01  0.40205248584E+01  0.14200000000E+01 0. -1.
         -4   -1    0    0    0  501 -0.00000000000E+00 -0.00000000000E+00 -0.25421481927E+02  0.25461110411E+02  0.14200000000E+01 0.  1.
       1023    2    1    2    0    0  0.00000000000E+00  0.00000000000E+00 -0.21660069940E+02  0.29481635270E+02  0.20000204708E+02 0.  0.
        -11    1    3    3    0    0  0.89296606834E+01 -0.45014607906E+01 -0.10841228266E+02  0.14749041316E+02  0.51100000000E-03 0. -1.
         11    1    3    3    0    0 -0.89296606834E+01  0.45014607906E+01 -0.10818841674E+02  0.14732593953E+02  0.51100000000E-03 0.  1.
<mgrwt>
<rscale>  0 0.20000205E+02</rscale>
<asrwt>0</asrwt>
<pdfrwt beam="1">  1        4 0.60165889E-03 0.20000205E+02</pdfrwt>
<pdfrwt beam="2">  1       -4 0.39339772E-02 0.20000205E+02</pdfrwt>
<totfact> 0.12482644E+06</totfact>
</mgrwt>
</event>
<event>
 5    1  0.1176938E-006  0.2000194E+02  0.7818608E-02  0.1745289E+00
         -4   -1    0    0    0  501 -0.00000000000E+00  0.00000000000E+00  0.89543937284E+01  0.90662873902E+01  0.14200000000E+01 0. -1.
          4   -1    0    0  501    0  0.00000000000E+00 -0.00000000000E+00 -0.10942459098E+02  0.11034210942E+02  0.14200000000E+01 0.  1.
       1023    2    1    2    0    0  0.00000000000E+00  0.00000000000E+00 -0.19880653696E+01  0.20100498332E+02  0.20001940638E+02 0.  0.
        -11    1    3    3    0    0 -0.49377372309E+01  0.86967925707E+01 -0.10572479905E+01  0.10056501556E+02  0.51100000000E-03 0. -1.
         11    1    3    3    0    0  0.49377372309E+01 -0.86967925707E+01 -0.93081737910E+00  0.10043996776E+02  0.51100000000E-03 0.  1.
<mgrwt>
<rscale>  0 0.20001941E+02</rscale>
<asrwt>0</asrwt>
<pdfrwt beam="2">  1        4 0.16991203E-02 0.20001941E+02</pdfrwt>
<pdfrwt beam="1">  1       -4 0.13932641E-02 0.20001941E+02</pdfrwt>
<totfact> 0.13005506E+06</totfact>
</mgrwt>
</event>
<event>
 5    1  0.1154861E-006  0.2000042E+02  0.7818608E-02  0.1745320E+00
         -4   -1    0    0    0  501 -0.00000000000E+00  0.00000000000E+00  0.18797989731E+02  0.18851546831E+02  0.14200000000E+01 0. -1.
          4   -1    0    0  501    0  0.00000000000E+00 -0.00000000000E+00 -0.51628179248E+01  0.53545390954E+01  0.14200000000E+01 0.  1.
       1023    2    1    2    0    0  0.00000000000E+00  0.00000000000E+00  0.13635171806E+02  0.24206085926E+02  0.20000417138E+02 0.  0.
        -11    1    3    3    0    0 -0.92490220170E+01  0.38025975030E+01  0.68128793064E+01  0.12100391760E+02  0.51100000000E-03 0. -1.
         11    1    3    3    0    0  0.92490220170E+01 -0.38025975030E+01  0.68222924997E+01  0.12105694167E+02  0.51100000000E-03 0.  1.
<mgrwt>
<rscale>  0 0.20000417E+02</rscale>
<asrwt>0</asrwt>
<pdfrwt beam="2">  1        4 0.81314722E-03 0.20000417E+02</pdfrwt>
<pdfrwt beam="1">  1       -4 0.29108660E-02 0.20000417E+02</pdfrwt>
<totfact> 0.12769608E+06</totfact>
</mgrwt>
</event>
<event>
 4    1  0.1154861E-006  0.2004944E+02  0.7818608E-02  0.1744347E+00
         -4   -1    0    0    0  501 -0.00000000000E+00  0.00000000000E+00  0.20318304943E+02  0.20367864782E+02  0.14200000000E+01 0.  1.
          4   -1    0    0  501    0  0.00000000000E+00 -0.00000000000E+00 -0.47872426720E+01  0.49934048905E+01  0.14200000000E+01 0. -1.
        -11    1    1    2    0    0  0.26072879885E+01 -0.96775147789E+01  0.80271706904E+01  0.12840861050E+02  0.51100000000E-03 0. -1.
         11    1    1    2    0    0 -0.26072879885E+01  0.96775147789E+01  0.75038915808E+01  0.12520408622E+02  0.51100000000E-03 0.  1.
<mgrwt>
<rscale>  0 0.20049441E+02</rscale>
<asrwt>0</asrwt>
<pdfrwt beam="2">  1        4 0.75616979E-03 0.20049441E+02</pdfrwt>
<pdfrwt beam="1">  1       -4 0.31455640E-02 0.20049441E+02</pdfrwt>
<totfact> 0.12641751E+06</totfact>
</mgrwt>
</event>
<event>
 5    1  0.1154861E-006  0.2000515E+02  0.7818608E-02  0.1745226E+00
         -4   -1    0    0    0  501 -0.00000000000E+00  0.00000000000E+00  0.26384718737E+02  0.26422902620E+02  0.14200000000E+01 0. -1.
          4   -1    0    0  501    0  0.00000000000E+00 -0.00000000000E+00 -0.36166095330E+01  0.38853911662E+01  0.14200000000E+01 0.  1.
       1023    2    1    2    0    0  0.00000000000E+00  0.00000000000E+00  0.22768109204E+02  0.30308293786E+02  0.20005146225E+02 0.  0.
        -11    1    3    3    0    0 -0.70277787428E+01  0.71171789236E+01  0.11252336990E+02  0.15055198368E+02  0.51100000000E-03 0. -1.
         11    1    3    3    0    0  0.70277787428E+01 -0.71171789236E+01  0.11515772214E+02  0.15253095418E+02  0.51100000000E-03 0.  1.
<mgrwt>
<rscale>  0 0.20005146E+02</rscale>
<asrwt>0</asrwt>
<pdfrwt beam="2">  1        4 0.58001419E-03 0.20005146E+02</pdfrwt>
<pdfrwt beam="1">  1       -4 0.40828003E-02 0.20005146E+02</pdfrwt>
<totfact> 0.12433168E+06</totfact>
</mgrwt>
</event>
<event>
 5    1  0.1196339E-006  0.2000116E+02  0.7818608E-02  0.1745305E+00
         -4   -1    0    0    0  501 -0.00000000000E+00  0.00000000000E+00  0.92321348228E+01  0.93407019750E+01  0.14200000000E+01 0. -1.
          4   -1    0    0  501    0  0.00000000000E+00 -0.00000000000E+00 -0.10613534103E+02  0.10708104695E+02  0.14200000000E+01 0.  1.
       1023    2    1    2    0    0  0.00000000000E+00  0.00000000000E+00 -0.13813992806E+01  0.20048806670E+02  0.20001159590E+02 0.  0.
        -11    1    3    3    0    0 -0.98004661417E+01 -0.19880625528E+01 -0.79127141671E+00  0.10031332914E+02  0.51100000000E-03 0. -1.
         11    1    3    3    0    0  0.98004661417E+01  0.19880625528E+01 -0.59012786391E+00  0.10017473757E+02  0.51100000000E-03 0.  1.
<mgrwt>
<rscale>  0 0.20001160E+02</rscale>
<asrwt>0</asrwt>
<pdfrwt beam="2">  1        4 0.16484774E-02 0.20001160E+02</pdfrwt>
<pdfrwt beam="1">  1       -4 0.14359544E-02 0.20001160E+02</pdfrwt>
<totfact> 0.13009608E+06</totfact>
</mgrwt>
</event>
<event>
 5    1  0.1154861E-006  0.2000492E+02  0.7818608E-02  0.1745230E+00
          4   -1    0    0  501    0  0.00000000000E+00  0.00000000000E+00  0.42533538901E+02  0.42557235947E+02  0.14200000000E+01 0. -1.
         -4   -1    0    0    0  501 -0.00000000000E+00 -0.00000000000E+00 -0.21112779358E+01  0.25443849006E+01  0.14200000000E+01 0.  1.
       1023    2    1    2    0    0  0.00000000000E+00  0.00000000000E+00  0.40422260965E+02  0.45101620848E+02  0.20004924932E+02 0.  0.
        -11    1    3    3    0    0 -0.11408979509E+01 -0.99371103142E+01  0.20296849736E+02  0.22627636178E+02  0.51100000000E-03 0.  1.
         11    1    3    3    0    0  0.11408979509E+01  0.99371103142E+01  0.20125411229E+02  0.22473984670E+02  0.51100000000E-03 0. -1.
<mgrwt>
<rscale>  0 0.20004925E+02</rscale>
<asrwt>0</asrwt>
<pdfrwt beam="1">  1        4 0.65787597E-02 0.20004925E+02</pdfrwt>
<pdfrwt beam="2">  1       -4 0.35995078E-03 0.20004925E+02</pdfrwt>
<totfact> 0.11725481E+06</totfact>
</mgrwt>
</event>
<event>
 4    1  0.1154861E-006  0.2004358E+02  0.7818608E-02  0.1744463E+00
          4   -1    0    0  501    0  0.00000000000E+00  0.00000000000E+00  0.13974357014E+02  0.14046318163E+02  0.14200000000E+01 0. -1.
         -4   -1    0    0    0  501 -0.00000000000E+00 -0.00000000000E+00 -0.70255497901E+01  0.71676181437E+01  0.14200000000E+01 0.  1.
        -11    1    1    2    0    0 -0.71447111762E+01 -0.70246678982E+01  0.36949855432E+01  0.10679221662E+02  0.51100000000E-03 0. -1.
         11    1    1    2    0    0  0.71447111762E+01  0.70246678982E+01  0.32538216803E+01  0.10534714645E+02  0.51100000000E-03 0.  1.
<mgrwt>
<rscale>  0 0.20043582E+02</rscale>
<asrwt>0</asrwt>
<pdfrwt beam="1">  1        4 0.21663649E-02 0.20043582E+02</pdfrwt>
<pdfrwt beam="2">  1       -4 0.10973176E-02 0.20043582E+02</pdfrwt>
<totfact> 0.12884785E+06</totfact>
</mgrwt>
</event>
<event>
 5    1  0.1181803E-006  0.2000082E+02  0.7818608E-02  0.1745312E+00
         -4   -1    0    0    0  501 -0.00000000000E+00  0.00000000000E+00  0.13697635999E+02  0.13771043241E+02  0.14200000000E+01 0.  1.
          4   -1    0    0  501    0  0.00000000000E+00 -0.00000000000E+00 -0.71380880205E+01  0.72779599194E+01  0.14200000000E+01 0. -1.
       1023    2    1    2    0    0  0.00000000000E+00  0.00000000000E+00  0.65595479781E+01  0.21049003161E+02  0.20000821593E+02 0.  0.
        -11    1    3    3    0    0  0.95567669775E+01  0.29455091535E+01  0.33007323992E+01  0.10531032897E+02  0.51100000000E-03 0. -1.
         11    1    3    3    0    0 -0.95567669775E+01 -0.29455091535E+01  0.32588155789E+01  0.10517970264E+02  0.51100000000E-03 0.  1.
<mgrwt>
<rscale>  0 0.20000822E+02</rscale>
<asrwt>0</asrwt>
<pdfrwt beam="2">  1        4 0.11145735E-02 0.20000822E+02</pdfrwt>
<pdfrwt beam="1">  1       -4 0.21237347E-02 0.20000822E+02</pdfrwt>
<totfact> 0.12950773E+06</totfact>
</mgrwt>
</event>
<event>
 5    1  0.1154861E-006  0.2000180E+02  0.7818608E-02  0.1745292E+00
         -4   -1    0    0    0  501 -0.00000000000E+00  0.00000000000E+00  0.34353366070E+02  0.34382701470E+02  0.14200000000E+01 0. -1.
          4   -1    0    0  501    0  0.00000000000E+00 -0.00000000000E+00 -0.27058069305E+01  0.30557799570E+01  0.14200000000E+01 0.  1.
       1023    2    1    2    0    0  0.00000000000E+00  0.00000000000E+00  0.31647559140E+02  0.37438481427E+02  0.20001797220E+02 0.  0.
        -11    1    3    3    0    0 -0.92373732357E+01  0.38306695111E+01  0.16052099644E+02  0.18912244617E+02  0.51100000000E-03 0.  1.
         11    1    3    3    0    0  0.92373732357E+01 -0.38306695111E+01  0.15595459496E+02  0.18526236810E+02  0.51100000000E-03 0. -1.
<mgrwt>
<rscale>  0 0.20001797E+02</rscale>
<asrwt>0</asrwt>
<pdfrwt beam="2">  1        4 0.44545551E-03 0.20001797E+02</pdfrwt>
<pdfrwt beam="1">  1       -4 0.53143114E-02 0.20001797E+02</pdfrwt>
<totfact> 0.12081344E+06</totfact>
</mgrwt>
</event>
<event>
 5    1  0.1176531E-006  0.2000160E+02  0.7818608E-02  0.1745296E+00
         -4   -1    0    0    0  501 -0.00000000000E+00  0.00000000000E+00  0.31532476852E+01  0.34582323468E+01  0.14200000000E+01 0.  1.
          4   -1    0    0  501    0  0.00000000000E+00 -0.00000000000E+00 -0.29932659371E+02  0.29966322714E+02  0.14200000000E+01 0. -1.
       1023    2    1    2    0    0  0.00000000000E+00  0.00000000000E+00 -0.26779411686E+02  0.33424555061E+02  0.20001599706E+02 0.  0.
        -11    1    3    3    0    0  0.38959593610E+00  0.99929268062E+01 -0.13515052288E+02  0.16812703820E+02  0.51100000000E-03 0. -1.
         11    1    3    3    0    0 -0.38959593610E+00 -0.99929268062E+01 -0.13264359398E+02  0.16611851241E+02  0.51100000000E-03 0.  1.
<mgrwt>
<rscale>  0 0.20001600E+02</rscale>
<asrwt>0</asrwt>
<pdfrwt beam="2">  1        4 0.46310742E-02 0.20001600E+02</pdfrwt>
<pdfrwt beam="1">  1       -4 0.51116490E-03 0.20001600E+02</pdfrwt>
<totfact> 0.12278341E+06</totfact>
</mgrwt>
</event>
<event>
 5    1  0.1160120E-006  0.2000202E+02  0.7818608E-02  0.1745288E+00
          4   -1    0    0  501    0  0.00000000000E+00  0.00000000000E+00  0.44073839916E+01  0.46304895690E+01  0.14200000000E+01 0.  1.
         -4   -1    0    0    0  501 -0.00000000000E+00 -0.00000000000E+00 -0.21886895090E+02  0.21932910812E+02  0.14200000000E+01 0. -1.
       1023    2    1    2    0    0  0.00000000000E+00  0.00000000000E+00 -0.17479511099E+02  0.26563400381E+02  0.20002023187E+02 0.  0.
        -11    1    3    3    0    0 -0.47330912317E+01  0.88100545996E+01 -0.87821274522E+01  0.13309582169E+02  0.51100000000E-03 0. -1.
         11    1    3    3    0    0  0.47330912317E+01 -0.88100545996E+01 -0.86973836463E+01  0.13253818212E+02  0.51100000000E-03 0.  1.
<mgrwt>
<rscale>  0 0.20002023E+02</rscale>
<asrwt>0</asrwt>
<pdfrwt beam="1">  1        4 0.69876073E-03 0.20002023E+02</pdfrwt>
<pdfrwt beam="2">  1       -4 0.33879162E-02 0.20002023E+02</pdfrwt>
<totfact> 0.12636673E+06</totfact>
</mgrwt>
</event>
<event>
 4    1  0.1154861E-006  0.2004018E+02  0.7818608E-02  0.1744530E+00
          4   -1    0    0  501    0  0.00000000000E+00  0.00000000000E+00  0.29995967362E+01  0.33187317728E+01  0.14200000000E+01 0. -1.
         -4   -1    0    0    0  501 -0.00000000000E+00 -0.00000000000E+00 -0.31445278319E+02  0.31477324037E+02  0.14200000000E+01 0.  1.
        -11    1    1    2    0    0 -0.42441511903E+01  0.90757104884E+01 -0.14473462372E+02  0.17602910370E+02  0.51100000000E-03 0. -1.
         11    1    1    2    0    0  0.42441511903E+01 -0.90757104884E+01 -0.13972219211E+02  0.17193145440E+02  0.51100000000E-03 0.  1.
<mgrwt>
<rscale>  0 0.20040177E+02</rscale>
<asrwt>0</asrwt>
<pdfrwt beam="1">  1        4 0.48849035E-03 0.20040177E+02</pdfrwt>
<pdfrwt beam="2">  1       -4 0.48647488E-02 0.20040177E+02</pdfrwt>
<totfact> 0.12162435E+06</totfact>
</mgrwt>
</event>
<event>
 5    1  0.1154861E-006  0.2000182E+02  0.7818608E-02  0.1745292E+00
         -4   -1    0    0    0  501 -0.00000000000E+00  0.00000000000E+00  0.11002263177E+02  0.11093520407E+02  0.14200000000E+01 0. -1.
          4   -1    0    0  501    0  0.00000000000E+00 -0.00000000000E+00 -0.89054036242E+01  0.90179051731E+01  0.14200000000E+01 0.  1.
       1023    2    1    2    0    0  0.00000000000E+00  0.00000000000E+00  0.20968595527E+01  0.20111425580E+02  0.20001815389E+02 0.  0.
        -11    1    3    3    0    0  0.82227518300E+01 -0.56920592011E+01  0.11193061323E+01  0.10063102508E+02  0.51100000000E-03 0. -1.
         11    1    3    3    0    0 -0.82227518300E+01  0.56920592011E+01  0.97755342042E+00  0.10048323072E+02  0.51100000000E-03 0.  1.
<mgrwt>
<rscale>  0 0.20001815E+02</rscale>
<asrwt>0</asrwt>
<pdfrwt beam="2">  1        4 0.13857358E-02 0.20001815E+02</pdfrwt>
<pdfrwt beam="1">  1       -4 0.17083296E-02 0.20001815E+02</pdfrwt>
<totfact> 0.13005024E+06</totfact>
</mgrwt>
</event>
<event>
 5    1  0.1180426E-006  0.2000129E+02  0.7818608E-02  0.1745302E+00
          4   -1    0    0  501    0  0.00000000000E+00  0.00000000000E+00  0.20555236167E+02  0.20604226117E+02  0.14200000000E+01 0.  1.
         -4   -1    0    0    0  501 -0.00000000000E+00 -0.00000000000E+00 -0.47058726439E+01  0.49154488443E+01  0.14200000000E+01 0. -1.
       1023    2    1    2    0    0  0.00000000000E+00  0.00000000000E+00  0.15849363524E+02  0.25519674962E+02  0.20001287110E+02 0.  0.
        -11    1    3    3    0    0 -0.64504500504E+01  0.76415987265E+01  0.80556361561E+01  0.12841168603E+02  0.51100000000E-03 0. -1.
         11    1    3    3    0    0  0.64504500504E+01 -0.76415987265E+01  0.77937273674E+01  0.12678506359E+02  0.51100000000E-03 0.  1.
<mgrwt>
<rscale>  0 0.20001287E+02</rscale>
<asrwt>0</asrwt>
<pdfrwt beam="1">  1        4 0.31822337E-02 0.20001287E+02</pdfrwt>
<pdfrwt beam="2">  1       -4 0.74387012E-03 0.20001287E+02</pdfrwt>
<totfact> 0.12695032E+06</totfact>
</mgrwt>
</event>
<event>
 4    1  0.1258295E-006  0.2015865E+02  0.7818608E-02  0.1742191E+00
         -4   -1    0    0    0  501 -0.00000000000E+00  0.00000000000E+00  0.14136790773E+02  0.14207929243E+02  0.14200000000E+01 0.  1.
          4   -1    0    0  501    0  0.00000000000E+00 -0.00000000000E+00 -0.70260259286E+01  0.71680848453E+01  0.14200000000E+01 0. -1.
        -11    1    1    2    0    0  0.97763963257E+01 -0.22706827853E+01  0.25726899276E+01  0.10361112834E+02  0.51100000000E-03 0.  1.
         11    1    1    2    0    0 -0.97763963257E+01  0.22706827853E+01  0.45380749169E+01  0.11014901254E+02  0.51100000000E-03 0. -1.
<mgrwt>
<rscale>  0 0.20158646E+02</rscale>
<asrwt>0</asrwt>
<pdfrwt beam="2">  1        4 0.10973269E-02 0.20158646E+02</pdfrwt>
<pdfrwt beam="1">  1       -4 0.21912907E-02 0.20158646E+02</pdfrwt>
<totfact> 0.12725641E+06</totfact>
</mgrwt>
</event>
<event>
 5    1  0.1154861E-006  0.2000239E+02  0.7818608E-02  0.1745281E+00
          4   -1    0    0  501    0  0.00000000000E+00  0.00000000000E+00  0.63729538216E+01  0.65292373530E+01  0.14200000000E+01 0.  1.
         -4   -1    0    0    0  501 -0.00000000000E+00 -0.00000000000E+00 -0.15315421343E+02  0.15381109547E+02  0.14200000000E+01 0. -1.
       1023    2    1    2    0    0  0.00000000000E+00  0.00000000000E+00 -0.89424675212E+01  0.21910346900E+02  0.20002389255E+02 0.  0.
        -11    1    3    3    0    0  0.71414643749E+01 -0.70008489219E+01 -0.45886736769E+01  0.11003105263E+02  0.51100000000E-03 0.  1.
         11    1    3    3    0    0 -0.71414643749E+01  0.70008489219E+01 -0.43537938443E+01  0.10907241638E+02  0.51100000000E-03 0. -1.
<mgrwt>
<rscale>  0 0.20002389E+02</rscale>
<asrwt>0</asrwt>
<pdfrwt beam="1">  1        4 0.99752919E-03 0.20002389E+02</pdfrwt>
<pdfrwt beam="2">  1       -4 0.23732934E-02 0.20002389E+02</pdfrwt>
<totfact> 0.12898289E+06</totfact>
</mgrwt>
</event>
<event>
 5    1  0.1154861E-006  0.2000171E+02  0.7818608E-02  0.1745294E+00
         -4   -1    0    0    0  501 -0.00000000000E+00  0.00000000000E+00  0.59127173263E+01  0.60808409106E+01  0.14200000000E+01 0. -1.
          4   -1    0    0  501    0  0.00000000000E+00 -0.00000000000E+00 -0.16479383257E+02  0.16540449587E+02  0.14200000000E+01 0.  1.
       1023    2    1    2    0    0  0.00000000000E+00  0.00000000000E+00 -0.10566665931E+02  0.22621290498E+02  0.20001708799E+02 0.  0.
        -11    1    3    3    0    0 -0.67121290132E+01 -0.74137415661E+01 -0.53162781284E+01  0.11326034315E+02  0.51100000000E-03 0. -1.
         11    1    3    3    0    0  0.67121290132E+01  0.74137415661E+01 -0.52503878026E+01  0.11295256183E+02  0.51100000000E-03 0.  1.
<mgrwt>
<rscale>  0 0.20001709E+02</rscale>
<asrwt>0</asrwt>
<pdfrwt beam="2">  1        4 0.25529197E-02 0.20001709E+02</pdfrwt>
<pdfrwt beam="1">  1       -4 0.92727882E-03 0.20001709E+02</pdfrwt>
<totfact> 0.12858072E+06</totfact>
</mgrwt>
</event>
<event>
 5    1  0.1154861E-006  0.2000513E+02  0.7818608E-02  0.1745226E+00
          4   -1    0    0  501    0  0.00000000000E+00  0.00000000000E+00  0.65395515755E+01  0.66919455175E+01  0.14200000000E+01 0. -1.
         -4   -1    0    0    0  501 -0.00000000000E+00 -0.00000000000E+00 -0.14936748825E+02  0.15004094956E+02  0.14200000000E+01 0.  1.
       1023    2    1    2    0    0  0.00000000000E+00  0.00000000000E+00 -0.83971972492E+01  0.21696040474E+02  0.20005130607E+02 0.  0.
        -11    1    3    3    0    0  0.20147848679E+01  0.97955303848E+01 -0.44142493115E+01  0.10931485298E+02  0.51100000000E-03 0. -1.
         11    1    3    3    0    0 -0.20147848679E+01 -0.97955303848E+01 -0.39829479378E+01  0.10764555175E+02  0.51100000000E-03 0.  1.
<mgrwt>
<rscale>  0 0.20005131E+02</rscale>
<asrwt>0</asrwt>
<pdfrwt beam="1">  1        4 0.10229879E-02 0.20005131E+02</pdfrwt>
<pdfrwt beam="2">  1       -4 0.23148644E-02 0.20005131E+02</pdfrwt>
<totfact> 0.12907157E+06</totfact>
</mgrwt>
</event>
<event>
 5    1  0.1154861E-006  0.2000525E+02  0.7818608E-02  0.1745224E+00
         -4   -1    0    0    0  501 -0.00000000000E+00  0.00000000000E+00  0.15453996836E+01  0.20987282297E+01  0.14200000000E+01 0.  1.
          4   -1    0    0  501    0  0.00000000000E+00 -0.00000000000E+00 -0.54347601364E+02  0.54366149156E+02  0.14200000000E+01 0. -1.
       1023    2    1    2    0    0  0.00000000000E+00  0.00000000000E+00 -0.52802201681E+02  0.56464877386E+02  0.20005246208E+02 0.  0.
        -11    1    3    3    0    0 -0.78419461913E+01 -0.62066105365E+01 -0.26924096973E+02  0.28721509927E+02  0.51100000000E-03 0.  1.
         11    1    3    3    0    0  0.78419461913E+01  0.62066105365E+01 -0.25878104708E+02  0.27743367459E+02  0.51100000000E-03 0. -1.
<mgrwt>
<rscale>  0 0.20005246E+02</rscale>
<asrwt>0</asrwt>
<pdfrwt beam="2">  1        4 0.84051587E-02 0.20005246E+02</pdfrwt>
<pdfrwt beam="1">  1       -4 0.28174433E-03 0.20005246E+02</pdfrwt>
<totfact> 0.11250615E+06</totfact>
</mgrwt>
</event>
<event>
 5    1  0.1154861E-006  0.2000118E+02  0.7818608E-02  0.1745305E+00
          4   -1    0    0  501    0  0.00000000000E+00  0.00000000000E+00  0.55226352325E+02  0.55244605086E+02  0.14200000000E+01 0.  1.
         -4   -1    0    0    0  501 -0.00000000000E+00 -0.00000000000E+00 -0.15110939822E+01  0.20735971217E+01  0.14200000000E+01 0. -1.
       1023    2    1    2    0    0  0.00000000000E+00  0.00000000000E+00  0.53715258343E+02  0.57318202208E+02  0.20001183103E+02 0.  0.
        -11    1    3    3    0    0  0.70670738397E+01 -0.70752668375E+01  0.26587311602E+02  0.28405775327E+02  0.51100000000E-03 0.  1.
         11    1    3    3    0    0 -0.70670738397E+01  0.70752668375E+01  0.27127946741E+02  0.28912426880E+02  0.51100000000E-03 0. -1.
<mgrwt>
<rscale>  0 0.20001183E+02</rscale>
<asrwt>0</asrwt>
<pdfrwt beam="1">  1        4 0.85410357E-02 0.20001183E+02</pdfrwt>
<pdfrwt beam="2">  1       -4 0.27714952E-03 0.20001183E+02</pdfrwt>
<totfact> 0.11221588E+06</totfact>
</mgrwt>
</event>
<event>
 5    1  0.1154861E-006  0.2000514E+02  0.7818608E-02  0.1745226E+00
          4   -1    0    0  501    0  0.00000000000E+00  0.00000000000E+00  0.94036200306E+01  0.95102297386E+01  0.14200000000E+01 0. -1.
         -4   -1    0    0    0  501 -0.00000000000E+00 -0.00000000000E+00 -0.10424681940E+02  0.10520950220E+02  0.14200000000E+01 0.  1.
       1023    2    1    2    0    0  0.00000000000E+00  0.00000000000E+00 -0.10210619090E+01  0.20031179959E+02  0.20005139418E+02 0.  0.
        -11    1    3    3    0    0 -0.64770894305E+01 -0.76211377707E+01 -0.38008432301E+00  0.10008940641E+02  0.51100000000E-03 0. -1.
         11    1    3    3    0    0  0.64770894305E+01  0.76211377707E+01 -0.64097758598E+00  0.10022239318E+02  0.51100000000E-03 0.  1.
<mgrwt>
<rscale>  0 0.20005139E+02</rscale>
<asrwt>0</asrwt>
<pdfrwt beam="1">  1        4 0.14623168E-02 0.20005139E+02</pdfrwt>
<pdfrwt beam="2">  1       -4 0.16194032E-02 0.20005139E+02</pdfrwt>
<totfact> 0.13005369E+06</totfact>
</mgrwt>
</event>
<event>
 5    1  0.1154861E-006  0.2000078E+02  0.7818608E-02  0.1745313E+00
          4   -1    0    0  501    0  0.00000000000E+00  0.00000000000E+00  0.29600403573E+01  0.32830228322E+01  0.14200000000E+01 0. -1.
         -4   -1    0    0    0  501 -0.00000000000E+00 -0.00000000000E+00 -0.31698342059E+02  0.31730132198E+02  0.14200000000E+01 0.  1.
       1023    2    1    2    0    0  0.00000000000E+00  0.00000000000E+00 -0.28738301702E+02  0.35013155030E+02  0.20000775996E+02 0.  0.
        -11    1    3    3    0    0  0.87739443548E+01 -0.47985023786E+01 -0.14379542123E+02  0.17515106524E+02  0.51100000000E-03 0.  1.
         11    1    3    3    0    0 -0.87739443548E+01  0.47985023786E+01 -0.14358759579E+02  0.17498048506E+02  0.51100000000E-03 0. -1.
<mgrwt>
<rscale>  0 0.20000776E+02</rscale>
<asrwt>0</asrwt>
<pdfrwt beam="1">  1        4 0.48268105E-03 0.20000776E+02</pdfrwt>
<pdfrwt beam="2">  1       -4 0.49039580E-02 0.20000776E+02</pdfrwt>
<totfact> 0.12200381E+06</totfact>
</mgrwt>
</event>
<event>
 5    1  0.1154861E-006  0.2000061E+02  0.7818608E-02  0.1745316E+00
          4   -1    0    0  501    0  0.00000000000E+00  0.00000000000E+00  0.41437215149E+02  0.41461538796E+02  0.14200000000E+01 0.  1.
         -4   -1    0    0    0  501 -0.00000000000E+00 -0.00000000000E+00 -0.21772750248E+01  0.25994088816E+01  0.14200000000E+01 0. -1.
       1023    2    1    2    0    0  0.00000000000E+00  0.00000000000E+00  0.39259940124E+02  0.44060947677E+02  0.20000605282E+02 0.  0.
        -11    1    3    3    0    0 -0.98289005030E+01 -0.18423496034E+01  0.19778004717E+02  0.22162378211E+02  0.51100000000E-03 0.  1.
         11    1    3    3    0    0  0.98289005030E+01  0.18423496034E+01  0.19481935408E+02  0.21898569466E+02  0.51100000000E-03 0. -1.
<mgrwt>
<rscale>  0 0.20000605E+02</rscale>
<asrwt>0</asrwt>
<pdfrwt beam="1">  1        4 0.64092994E-02 0.20000605E+02</pdfrwt>
<pdfrwt beam="2">  1       -4 0.36930826E-03 0.20000605E+02</pdfrwt>
<totfact> 0.11776812E+06</totfact>
</mgrwt>
</event>
<event>
 5    1  0.1154861E-006  0.2000228E+02  0.7818608E-02  0.1745283E+00
         -4   -1    0    0    0  501 -0.00000000000E+00  0.00000000000E+00  0.10371376086E+03  0.10372348139E+03  0.14200000000E+01 0. -1.
          4   -1    0    0  501    0  0.00000000000E+00 -0.00000000000E+00 -0.42655931423E+00  0.14826843388E+01  0.14200000000E+01 0.  1.
       1023    2    1    2    0    0  0.00000000000E+00  0.00000000000E+00  0.10328720155E+03  0.10520616573E+03  0.20002282477E+02 0.  0.
        -11    1    3    3    0    0  0.40015241035E+01 -0.91657312643E+01  0.51638217667E+02  0.52597797946E+02  0.51100000000E-03 0.  1.
         11    1    3    3    0    0 -0.40015241035E+01  0.91657312643E+01  0.51648983881E+02  0.52608367785E+02  0.51100000000E-03 0. -1.
<mgrwt>
<rscale>  0 0.20002282E+02</rscale>
<asrwt>0</asrwt>
<pdfrwt beam="2">  1        4 0.14761261E-03 0.20002282E+02</pdfrwt>
<pdfrwt beam="1">  1       -4 0.16037953E-01 0.20002282E+02</pdfrwt>
<totfact> 0.96532580E+05</totfact>
</mgrwt>
</event>
<event>
 5    1  0.1154861E-006  0.2000016E+02  0.7818608E-02  0.1745325E+00
          4   -1    0    0  501    0  0.00000000000E+00  0.00000000000E+00  0.13343009579E+02  0.13418357002E+02  0.14200000000E+01 0. -1.
         -4   -1    0    0    0  501 -0.00000000000E+00 -0.00000000000E+00 -0.73298991587E+01  0.74661785189E+01  0.14200000000E+01 0.  1.
       1023    2    1    2    0    0  0.00000000000E+00  0.00000000000E+00  0.60131104203E+01  0.20884535521E+02  0.20000158174E+02 0.  0.
        -11    1    3    3    0    0 -0.68057166925E+01  0.73268485921E+01  0.30410538690E+01  0.10452200672E+02  0.51100000000E-03 0.  1.
         11    1    3    3    0    0  0.68057166925E+01 -0.73268485921E+01  0.29720565513E+01  0.10432334849E+02  0.51100000000E-03 0. -1.
<mgrwt>
<rscale>  0 0.20000158E+02</rscale>
<asrwt>0</asrwt>
<pdfrwt beam="1">  1        4 0.20690497E-02 0.20000158E+02</pdfrwt>
<pdfrwt beam="2">  1       -4 0.11439558E-02 0.20000158E+02</pdfrwt>
<totfact> 0.12961363E+06</totfact>
</mgrwt>
</event>
<event>
 5    1  0.1154861E-006  0.2000059E+02  0.7818608E-02  0.1745316E+00
          4   -1    0    0  501    0  0.00000000000E+00  0.00000000000E+00  0.54527392957E+01  0.56346043186E+01  0.14200000000E+01 0. -1.
         -4   -1    0    0    0  501 -0.00000000000E+00 -0.00000000000E+00 -0.17829092531E+02  0.17885551165E+02  0.14200000000E+01 0.  1.
       1023    2    1    2    0    0  0.00000000000E+00  0.00000000000E+00 -0.12376353235E+02  0.23520155483E+02  0.20000589855E+02 0.  0.
        -11    1    3    3    0    0 -0.92047900692E+01  0.39084566847E+01 -0.62367274588E+01  0.11785625292E+02  0.51100000000E-03 0. -1.
         11    1    3    3    0    0  0.92047900692E+01 -0.39084566847E+01 -0.61396257762E+01  0.11734530191E+02  0.51100000000E-03 0.  1.
<mgrwt>
<rscale>  0 0.20000590E+02</rscale>
<asrwt>0</asrwt>
<pdfrwt beam="1">  1        4 0.85721557E-03 0.20000590E+02</pdfrwt>
<pdfrwt beam="2">  1       -4 0.27612699E-02 0.20000590E+02</pdfrwt>
<totfact> 0.12808151E+06</totfact>
</mgrwt>
</event>
<event>
 5    1  0.1154861E-006  0.2000198E+02  0.7818608E-02  0.1745289E+00
          4   -1    0    0  501    0  0.00000000000E+00  0.00000000000E+00  0.16790777945E+02  0.16850715830E+02  0.14200000000E+01 0. -1.
         -4   -1    0    0    0  501 -0.00000000000E+00 -0.00000000000E+00 -0.58004825283E+01  0.59717667035E+01  0.14200000000E+01 0.  1.
       1023    2    1    2    0    0  0.00000000000E+00  0.00000000000E+00  0.10990295416E+02  0.22822482534E+02  0.20001977794E+02 0.  0.
        -11    1    3    3    0    0  0.15016316035E+01 -0.98874610177E+01  0.55575997425E+01  0.11441315397E+02  0.51100000000E-03 0.  1.
         11    1    3    3    0    0 -0.15016316035E+01  0.98874610177E+01  0.54326956738E+01  0.11381167137E+02  0.51100000000E-03 0. -1.
<mgrwt>
<rscale>  0 0.20001978E+02</rscale>
<asrwt>0</asrwt>
<pdfrwt beam="1">  1        4 0.26009829E-02 0.20001978E+02</pdfrwt>
<pdfrwt beam="2">  1       -4 0.91016824E-03 0.20001978E+02</pdfrwt>
<totfact> 0.12846160E+06</totfact>
</mgrwt>
</event>
<event>
 5    1  0.1154861E-006  0.2000395E+02  0.7818608E-02  0.1745250E+00
          4   -1    0    0  501    0  0.00000000000E+00  0.00000000000E+00  0.47495501536E+02  0.47516724068E+02  0.14200000000E+01 0. -1.
         -4   -1    0    0    0  501 -0.00000000000E+00 -0.00000000000E+00 -0.18427191942E+01  0.23263735789E+01  0.14200000000E+01 0.  1.
       1023    2    1    2    0    0  0.00000000000E+00  0.00000000000E+00  0.45652782342E+02  0.49843097647E+02  0.20003945798E+02 0.  0.
        -11    1    3    3    0    0  0.81814895326E+01  0.57504685044E+01  0.22361559921E+02  0.24495795994E+02  0.51100000000E-03 0.  1.
         11    1    3    3    0    0 -0.81814895326E+01 -0.57504685044E+01  0.23291222421E+02  0.25347301654E+02  0.51100000000E-03 0. -1.
<mgrwt>
<rscale>  0 0.20003946E+02</rscale>
<asrwt>0</asrwt>
<pdfrwt beam="1">  1        4 0.73458371E-02 0.20003946E+02</pdfrwt>
<pdfrwt beam="2">  1       -4 0.32233194E-03 0.20003946E+02</pdfrwt>
<totfact> 0.11522233E+06</totfact>
</mgrwt>
</event>
<event>
 5    1  0.1154861E-006  0.2000026E+02  0.7818608E-02  0.1745323E+00
          4   -1    0    0  501    0  0.00000000000E+00  0.00000000000E+00  0.41956380679E+00  0.14806869311E+01  0.14200000000E+01 0.  1.
         -4   -1    0    0    0  501 -0.00000000000E+00 -0.00000000000E+00 -0.10418338942E+03  0.10419306614E+03  0.14200000000E+01 0. -1.
       1023    2    1    2    0    0  0.00000000000E+00  0.00000000000E+00 -0.10376382562E+03  0.10567375307E+03  0.20000264539E+02 0.  0.
        -11    1    3    3    0    0  0.31213617501E+01 -0.95004402732E+01 -0.51685593227E+02  0.52644105197E+02  0.51100000000E-03 0. -1.
         11    1    3    3    0    0 -0.31213617501E+01  0.95004402732E+01 -0.52078232391E+02  0.53029647875E+02  0.51100000000E-03 0.  1.
<mgrwt>
<rscale>  0 0.20000265E+02</rscale>
<asrwt>0</asrwt>
<pdfrwt beam="1">  1        4 0.14691758E-03 0.20000265E+02</pdfrwt>
<pdfrwt beam="2">  1       -4 0.16110574E-01 0.20000265E+02</pdfrwt>
<totfact> 0.96423327E+05</totfact>
</mgrwt>
</event>
<event>
 5    1  0.1154861E-006  0.2000161E+02  0.7818608E-02  0.1745296E+00
         -4   -1    0    0    0  501 -0.00000000000E+00  0.00000000000E+00  0.14929366750E+01  0.20604028528E+01  0.14200000000E+01 0.  1.
          4   -1    0    0  501    0  0.00000000000E+00 -0.00000000000E+00 -0.55716174661E+02  0.55734267008E+02  0.14200000000E+01 0. -1.
       1023    2    1    2    0    0  0.00000000000E+00  0.00000000000E+00 -0.54223237986E+02  0.57794669860E+02  0.20001608100E+02 0.  0.
        -11    1    3    3    0    0 -0.34609098341E+01  0.93827950828E+01 -0.27005808965E+02  0.28798063452E+02  0.51100000000E-03 0.  1.
         11    1    3    3    0    0  0.34609098341E+01 -0.93827950828E+01 -0.27217429021E+02  0.28996606409E+02  0.51100000000E-03 0. -1.
<mgrwt>
<rscale>  0 0.20001608E+02</rscale>
<asrwt>0</asrwt>
<pdfrwt beam="2">  1        4 0.86167608E-02 0.20001608E+02</pdfrwt>
<pdfrwt beam="1">  1       -4 0.27472557E-03 0.20001608E+02</pdfrwt>
<totfact> 0.11202443E+06</totfact>
</mgrwt>
</event>
<event>
 5    1  0.1154861E-006  0.2000517E+02  0.7818608E-02  0.1745225E+00
          4   -1    0    0  501    0  0.00000000000E+00  0.00000000000E+00  0.69752455456E+01  0.71183179489E+01  0.14200000000E+01 0. -1.
         -4   -1    0    0    0  501 -0.00000000000E+00 -0.00000000000E+00 -0.14018902521E+02  0.14090636178E+02  0.14200000000E+01 0.  1.
       1023    2    1    2    0    0  0.00000000000E+00  0.00000000000E+00 -0.70436569759E+01  0.21208954127E+02  0.20005165122E+02 0.  0.
        -11    1    3    3    0    0  0.98272232222E+01 -0.18517468251E+01 -0.32886503061E+01  0.10527036794E+02  0.51100000000E-03 0.  1.
         11    1    3    3    0    0 -0.98272232222E+01  0.18517468251E+01 -0.37550066698E+01  0.10681917333E+02  0.51100000000E-03 0. -1.
<mgrwt>
<rscale>  0 0.20005165E+02</rscale>
<asrwt>0</asrwt>
<pdfrwt beam="1">  1        4 0.10896382E-02 0.20005165E+02</pdfrwt>
<pdfrwt beam="2">  1       -4 0.21732778E-02 0.20005165E+02</pdfrwt>
<totfact> 0.12935622E+06</totfact>
</mgrwt>
</event>
<event>
 5    1  0.1154861E-006  0.2000005E+02  0.7818608E-02  0.1745327E+00
          4   -1    0    0  501    0  0.00000000000E+00  0.00000000000E+00  0.11403634413E+02  0.11491704740E+02  0.14200000000E+01 0. -1.
         -4   -1    0    0    0  501 -0.00000000000E+00 -0.00000000000E+00 -0.85888556621E+01  0.87054489594E+01  0.14200000000E+01 0.  1.
       1023    2    1    2    0    0  0.00000000000E+00  0.00000000000E+00  0.28147787508E+01  0.20197153699E+02  0.20000050953E+02 0.  0.
        -11    1    3    3    0    0  0.94732427863E+01 -0.32027936706E+01  0.14246778428E+01  0.10100986259E+02  0.51100000000E-03 0. -1.
         11    1    3    3    0    0 -0.94732427863E+01  0.32027936706E+01  0.13901009079E+01  0.10096167440E+02  0.51100000000E-03 0.  1.
<mgrwt>
<rscale>  0 0.20000051E+02</rscale>
<asrwt>0</asrwt>
<pdfrwt beam="1">  1        4 0.17701486E-02 0.20000051E+02</pdfrwt>
<pdfrwt beam="2">  1       -4 0.13371058E-02 0.20000051E+02</pdfrwt>
<totfact> 0.13002245E+06</totfact>
</mgrwt>
</event>
<event>
 5    1  0.1182682E-006  0.2000115E+02  0.7818608E-02  0.1745305E+00
          4   -1    0    0  501    0  0.00000000000E+00  0.00000000000E+00  0.39745869435E+02  0.39771227504E+02  0.14200000000E+01 0. -1.
         -4   -1    0    0    0  501 -0.00000000000E+00 -0.00000000000E+00 -0.22876023781E+01  0.26924941300E+01  0.14200000000E+01 0.  1.
       1023    2    1    2    0    0  0.00000000000E+00  0.00000000000E+00  0.37458267057E+02  0.42463721634E+02  0.20001147069E+02 0.  0.
        -11    1    3    3    0    0 -0.97659857285E+01 -0.21508918968E+01  0.18509958053E+02  0.21038520874E+02  0.51100000000E-03 0.  1.
         11    1    3    3    0    0  0.97659857285E+01  0.21508918968E+01  0.18948309005E+02  0.21425200760E+02  0.51100000000E-03 0. -1.
<mgrwt>
<rscale>  0 0.20001147E+02</rscale>
<asrwt>0</asrwt>
<pdfrwt beam="1">  1        4 0.61478449E-02 0.20001147E+02</pdfrwt>
<pdfrwt beam="2">  1       -4 0.38503499E-03 0.20001147E+02</pdfrwt>
<totfact> 0.11848074E+06</totfact>
</mgrwt>
</event>
<event>
 5    1  0.1154861E-006  0.2000373E+02  0.7818608E-02  0.1745254E+00
          4   -1    0    0  501    0  0.00000000000E+00  0.00000000000E+00  0.10317882622E+02  0.10415138107E+02  0.14200000000E+01 0.  1.
         -4   -1    0    0    0  501 -0.00000000000E+00 -0.00000000000E+00 -0.94997711054E+01  0.96053136885E+01  0.14200000000E+01 0. -1.
       1023    2    1    2    0    0  0.00000000000E+00  0.00000000000E+00  0.81811151636E+00  0.20020451796E+02  0.20003729244E+02 0.  0.
        -11    1    3    3    0    0  0.46266795349E+01  0.88673782380E+01  0.38191630447E+00  0.10009116877E+02  0.51100000000E-03 0.  1.
         11    1    3    3    0    0 -0.46266795349E+01 -0.88673782380E+01  0.43619521188E+00  0.10011334919E+02  0.51100000000E-03 0. -1.
<mgrwt>
<rscale>  0 0.20003729E+02</rscale>
<asrwt>0</asrwt>
<pdfrwt beam="1">  1        4 0.16029664E-02 0.20003729E+02</pdfrwt>
<pdfrwt beam="2">  1       -4 0.14771031E-02 0.20003729E+02</pdfrwt>
<totfact> 0.13007878E+06</totfact>
</mgrwt>
</event>
<event>
 5    1  0.1154861E-006  0.2000559E+02  0.7818608E-02  0.1745217E+00
          4   -1    0    0  501    0  0.00000000000E+00  0.00000000000E+00  0.94977404462E+01  0.96033053468E+01  0.14200000000E+01 0.  1.
         -4   -1    0    0    0  501 -0.00000000000E+00 -0.00000000000E+00 -0.10322046568E+02  0.10419263187E+02  0.14200000000E+01 0. -1.
       1023    2    1    2    0    0  0.00000000000E+00  0.00000000000E+00 -0.82430612183E+00  0.20022568533E+02  0.20005593470E+02 0.  0.
        -11    1    3    3    0    0 -0.62000817510E+01 -0.78491416622E+01 -0.33525226766E+00  0.10008118349E+02  0.51100000000E-03 0.  1.
         11    1    3    3    0    0  0.62000817510E+01  0.78491416622E+01 -0.48905385417E+00  0.10014450184E+02  0.51100000000E-03 0. -1.
<mgrwt>
<rscale>  0 0.20005593E+02</rscale>
<asrwt>0</asrwt>
<pdfrwt beam="1">  1        4 0.14767894E-02 0.20005593E+02</pdfrwt>
<pdfrwt beam="2">  1       -4 0.16036057E-02 0.20005593E+02</pdfrwt>
<totfact> 0.13005277E+06</totfact>
</mgrwt>
</event>
<event>
 5    1  0.1165447E-006  0.2000159E+02  0.7818608E-02  0.1745296E+00
         -4   -1    0    0    0  501 -0.00000000000E+00  0.00000000000E+00  0.18240756667E+02  0.18295945009E+02  0.14200000000E+01 0.  1.
          4   -1    0    0  501    0  0.00000000000E+00 -0.00000000000E+00 -0.53264751491E+01  0.55125073709E+01  0.14200000000E+01 0. -1.
       1023    2    1    2    0    0  0.00000000000E+00  0.00000000000E+00  0.12914281518E+02  0.23808452380E+02  0.20001593377E+02 0.  0.
        -11    1    3    3    0    0 -0.58283247798E+01 -0.81268277764E+01  0.64989667886E+01  0.11926913642E+02  0.51100000000E-03 0.  1.
         11    1    3    3    0    0  0.58283247798E+01  0.81268277764E+01  0.64153147290E+01  0.11881538738E+02  0.51100000000E-03 0. -1.
<mgrwt>
<rscale>  0 0.20001593E+02</rscale>
<asrwt>0</asrwt>
<pdfrwt beam="2">  1        4 0.83801315E-03 0.20001593E+02</pdfrwt>
<pdfrwt beam="1">  1       -4 0.28248257E-02 0.20001593E+02</pdfrwt>
<totfact> 0.12790503E+06</totfact>
</mgrwt>
</event>
<event>
 5    1  0.1169555E-006  0.2000203E+02  0.7818608E-02  0.1745288E+00
          4   -1    0    0  501    0  0.00000000000E+00  0.00000000000E+00  0.74981791199E+01  0.76314539974E+01  0.14200000000E+01 0.  1.
         -4   -1    0    0    0  501 -0.00000000000E+00 -0.00000000000E+00 -0.13049642742E+02  0.13126674205E+02  0.14200000000E+01 0. -1.
       1023    2    1    2    0    0  0.00000000000E+00  0.00000000000E+00 -0.55514636217E+01  0.20758128202E+02  0.20002028350E+02 0.  0.
        -11    1    3    3    0    0  0.28057085221E+00 -0.99970764981E+01 -0.27704647280E+01  0.10377655495E+02  0.51100000000E-03 0. -1.
         11    1    3    3    0    0 -0.28057085221E+00  0.99970764981E+01 -0.27809988937E+01  0.10380472707E+02  0.51100000000E-03 0.  1.
<mgrwt>
<rscale>  0 0.20002028E+02</rscale>
<asrwt>0</asrwt>
<pdfrwt beam="1">  1        4 0.11697434E-02 0.20002028E+02</pdfrwt>
<pdfrwt beam="2">  1       -4 0.20238148E-02 0.20002028E+02</pdfrwt>
<totfact> 0.12966375E+06</totfact>
</mgrwt>
</event>
<event>
 5    1  0.1168511E-006  0.2000133E+02  0.7818608E-02  0.1745302E+00
          4   -1    0    0  501    0  0.00000000000E+00  0.00000000000E+00  0.50164029533E+01  0.52135111576E+01  0.14200000000E+01 0. -1.
         -4   -1    0    0    0  501 -0.00000000000E+00 -0.00000000000E+00 -0.19329448536E+02  0.19381537109E+02  0.14200000000E+01 0.  1.
       1023    2    1    2    0    0  0.00000000000E+00  0.00000000000E+00 -0.14313045582E+02  0.24595048266E+02  0.20001328090E+02 0.  0.
        -11    1    3    3    0    0 -0.62923445561E+01  0.77726441347E+01 -0.72492323427E+01  0.12351476295E+02  0.51100000000E-03 0.  1.
         11    1    3    3    0    0  0.62923445561E+01 -0.77726441347E+01 -0.70638132397E+01  0.12243571971E+02  0.51100000000E-03 0. -1.
<mgrwt>
<rscale>  0 0.20001328E+02</rscale>
<asrwt>0</asrwt>
<pdfrwt beam="1">  1        4 0.79092329E-03 0.20001328E+02</pdfrwt>
<pdfrwt beam="2">  1       -4 0.29929303E-02 0.20001328E+02</pdfrwt>
<totfact> 0.12746538E+06</totfact>
</mgrwt>
</event>
<event>
 5    1  0.1183317E-006  0.2000147E+02  0.7818608E-02  0.1745299E+00
         -4   -1    0    0    0  501 -0.00000000000E+00  0.00000000000E+00  0.75113193074E+01  0.76443650971E+01  0.14200000000E+01 0.  1.
          4   -1    0    0  501    0  0.00000000000E+00 -0.00000000000E+00 -0.13026338375E+02  0.13103506838E+02  0.14200000000E+01 0. -1.
       1023    2    1    2    0    0  0.00000000000E+00  0.00000000000E+00 -0.55150190675E+01  0.20747871935E+02  0.20001468809E+02 0.  0.
        -11    1    3    3    0    0 -0.15860410685E+00  0.99993106185E+01 -0.28172815398E+01  0.10389824043E+02  0.51100000000E-03 0.  1.
         11    1    3    3    0    0  0.15860410685E+00 -0.99993106185E+01 -0.26977375277E+01  0.10358047892E+02  0.51100000000E-03 0. -1.
<mgrwt>
<rscale>  0 0.20001469E+02</rscale>
<asrwt>0</asrwt>
<pdfrwt beam="2">  1        4 0.20202224E-02 0.20001469E+02</pdfrwt>
<pdfrwt beam="1">  1       -4 0.11717579E-02 0.20001469E+02</pdfrwt>
<totfact> 0.12967723E+06</totfact>
</mgrwt>
</event>
<event>
 5    1  0.1154861E-006  0.2000149E+02  0.7818608E-02  0.1745298E+00
         -4   -1    0    0    0  501 -0.00000000000E+00  0.00000000000E+00  0.89047283903E+02  0.89058605258E+02  0.14200000000E+01 0. -1.
          4   -1    0    0  501    0  0.00000000000E+00 -0.00000000000E+00 -0.65831300723E+00  0.15651760334E+01  0.14200000000E+01 0.  1.
       1023    2    1    2    0    0  0.00000000000E+00  0.00000000000E+00  0.88388970895E+02  0.90623781291E+02  0.20001488933E+02 0.  0.
        -11    1    3    3    0    0 -0.92517222409E+01  0.37974356194E+01  0.44207233353E+02  0.45324324184E+02  0.51100000000E-03 0. -1.
         11    1    3    3    0    0  0.92517222409E+01 -0.37974356194E+01  0.44181737542E+02  0.45299457107E+02  0.51100000000E-03 0.  1.
<mgrwt>
<rscale>  0 0.20001489E+02</rscale>
<asrwt>0</asrwt>
<pdfrwt beam="2">  1        4 0.17190852E-03 0.20001489E+02</pdfrwt>
<pdfrwt beam="1">  1       -4 0.13770210E-01 0.20001489E+02</pdfrwt>
<totfact> 0.10075249E+06</totfact>
</mgrwt>
</event>
<event>
 5    1  0.1154861E-006  0.2000031E+02  0.7818608E-02  0.1745322E+00
         -4   -1    0    0    0  501 -0.00000000000E+00  0.00000000000E+00  0.48676541094E+01  0.50705479515E+01  0.14200000000E+01 0.  1.
          4   -1    0    0  501    0  0.00000000000E+00 -0.00000000000E+00 -0.19896272339E+02  0.19946880783E+02  0.14200000000E+01 0. -1.
       1023    2    1    2    0    0  0.00000000000E+00  0.00000000000E+00 -0.15028618229E+02  0.25017428735E+02  0.20000309363E+02 0.  0.
        -11    1    3    3    0    0 -0.45703090543E-01 -0.10000031921E+02 -0.75382459144E+01  0.12523093824E+02  0.51100000000E-03 0.  1.
         11    1    3    3    0    0  0.45703090543E-01  0.10000031921E+02 -0.74903723149E+01  0.12494334911E+02  0.51100000000E-03 0. -1.
<mgrwt>
<rscale>  0 0.20000309E+02</rscale>
<asrwt>0</asrwt>
<pdfrwt beam="2">  1        4 0.30804651E-02 0.20000309E+02</pdfrwt>
<pdfrwt beam="1">  1       -4 0.76837005E-03 0.20000309E+02</pdfrwt>
<totfact> 0.12724223E+06</totfact>
</mgrwt>
</event>
<event>
 5    1  0.1154861E-006  0.2000999E+02  0.7818608E-02  0.1745130E+00
         -4   -1    0    0    0  501 -0.00000000000E+00  0.00000000000E+00  0.26702033653E+01  0.30242992597E+01  0.14200000000E+01 0.  1.
          4   -1    0    0  501    0  0.00000000000E+00 -0.00000000000E+00 -0.34787188549E+02  0.34816158420E+02  0.14200000000E+01 0. -1.
       1023    2    1    2    0    0  0.00000000000E+00  0.00000000000E+00 -0.32116985184E+02  0.37840457680E+02  0.20009985011E+02 0.  0.
        -11    1    3    3    0    0  0.67147543453E+01 -0.74141972251E+01 -0.16444329960E+02  0.19247707254E+02  0.51100000000E-03 0.  1.
         11    1    3    3    0    0 -0.67147543453E+01  0.74141972251E+01 -0.15672655223E+02  0.18592750426E+02  0.51100000000E-03 0. -1.
<mgrwt>
<rscale>  0 0.20009985E+02</rscale>
<asrwt>0</asrwt>
<pdfrwt beam="2">  1        4 0.53813414E-02 0.20009985E+02</pdfrwt>
<pdfrwt beam="1">  1       -4 0.44026714E-03 0.20009985E+02</pdfrwt>
<totfact> 0.12052142E+06</totfact>
</mgrwt>
</event>
<event>
 5    1  0.1164801E-006  0.2000095E+02  0.7818608E-02  0.1745309E+00
         -4   -1    0    0    0  501 -0.00000000000E+00  0.00000000000E+00  0.14701603725E+02  0.14770022075E+02  0.14200000000E+01 0.  1.
          4   -1    0    0  501    0  0.00000000000E+00 -0.00000000000E+00 -0.66432036937E+01  0.67932727986E+01  0.14200000000E+01 0. -1.
       1023    2    1    2    0    0  0.00000000000E+00  0.00000000000E+00  0.80584000316E+01  0.21563294874E+02  0.20000946846E+02 0.  0.
        -11    1    3    3    0    0  0.77892348112E+01  0.62718933588E+01  0.40018580917E+01  0.10771429510E+02  0.51100000000E-03 0. -1.
         11    1    3    3    0    0 -0.77892348112E+01 -0.62718933588E+01  0.40565419399E+01  0.10791865363E+02  0.51100000000E-03 0.  1.
<mgrwt>
<rscale>  0 0.20000947E+02</rscale>
<asrwt>0</asrwt>
<pdfrwt beam="2">  1        4 0.10388381E-02 0.20000947E+02</pdfrwt>
<pdfrwt beam="1">  1       -4 0.22785919E-02 0.20000947E+02</pdfrwt>
<totfact> 0.12920415E+06</totfact>
</mgrwt>
</event>
<event>
 5    1  0.1195917E-006  0.2000089E+02  0.7818608E-02  0.1745310E+00
         -4   -1    0    0    0  501 -0.00000000000E+00  0.00000000000E+00  0.83709818257E+01  0.84905675150E+01  0.14200000000E+01 0.  1.
          4   -1    0    0  501    0  0.00000000000E+00 -0.00000000000E+00 -0.11699538371E+02  0.11785397664E+02  0.14200000000E+01 0. -1.
       1023    2    1    2    0    0  0.00000000000E+00  0.00000000000E+00 -0.33285565457E+01  0.20275965179E+02  0.20000886862E+02 0.  0.
        -11    1    3    3    0    0  0.99897594169E+01  0.45659004964E+00 -0.15918755999E+01  0.10126096774E+02  0.51100000000E-03 0. -1.
         11    1    3    3    0    0 -0.99897594169E+01 -0.45659004964E+00 -0.17366809457E+01  0.10149868406E+02  0.51100000000E-03 0.  1.
<mgrwt>
<rscale>  0 0.20000887E+02</rscale>
<asrwt>0</asrwt>
<pdfrwt beam="2">  1        4 0.18157324E-02 0.20000887E+02</pdfrwt>
<pdfrwt beam="1">  1       -4 0.13036468E-02 0.20000887E+02</pdfrwt>
<totfact> 0.12996442E+06</totfact>
</mgrwt>
</event>
<event>
 5    1  0.1154861E-006  0.2000126E+02  0.7818608E-02  0.1745303E+00
          4   -1    0    0  501    0  0.00000000000E+00  0.00000000000E+00  0.71822599244E+00  0.15913040490E+01  0.14200000000E+01 0. -1.
         -4   -1    0    0    0  501 -0.00000000000E+00 -0.00000000000E+00 -0.85727471676E+02  0.85739231394E+02  0.14200000000E+01 0.  1.
       1023    2    1    2    0    0  0.00000000000E+00  0.00000000000E+00 -0.85009245684E+02  0.87330535443E+02  0.20001264185E+02 0.  0.
        -11    1    3    3    0    0 -0.20840875774E+01 -0.97808684923E+01 -0.42774924912E+02  0.43928385026E+02  0.51100000000E-03 0. -1.
         11    1    3    3    0    0  0.20840875774E+01  0.97808684923E+01 -0.42234320772E+02  0.43402150417E+02  0.51100000000E-03 0.  1.
<mgrwt>
<rscale>  0 0.20001264E+02</rscale>
<asrwt>0</asrwt>
<pdfrwt beam="1">  1        4 0.17856082E-03 0.20001264E+02</pdfrwt>
<pdfrwt beam="2">  1       -4 0.13256901E-01 0.20001264E+02</pdfrwt>
<totfact> 0.10176493E+06</totfact>
</mgrwt>
</event>
<event>
 5    1  0.1170396E-006  0.2000041E+02  0.7818608E-02  0.1745320E+00
         -4   -1    0    0    0  501 -0.00000000000E+00  0.00000000000E+00  0.11167164770E+02  0.11257085280E+02  0.14200000000E+01 0.  1.
          4   -1    0    0  501    0  0.00000000000E+00 -0.00000000000E+00 -0.87720361724E+01  0.88862263425E+01  0.14200000000E+01 0. -1.
       1023    2    1    2    0    0  0.00000000000E+00  0.00000000000E+00  0.23951285975E+01  0.20143311622E+02  0.20000409049E+02 0.  0.
        -11    1    3    3    0    0  0.73901836910E+00 -0.99727897956E+01  0.12353263415E+01  0.10076145885E+02  0.51100000000E-03 0.  1.
         11    1    3    3    0    0 -0.73901836910E+00  0.99727897956E+01  0.11598022559E+01  0.10067165738E+02  0.51100000000E-03 0. -1.
<mgrwt>
<rscale>  0 0.20000409E+02</rscale>
<asrwt>0</asrwt>
<pdfrwt beam="2">  1        4 0.13652449E-02 0.20000409E+02</pdfrwt>
<pdfrwt beam="1">  1       -4 0.17337262E-02 0.20000409E+02</pdfrwt>
<totfact> 0.13004984E+06</totfact>
</mgrwt>
</event>
<event>
 5    1  0.1154861E-006  0.2000353E+02  0.7818608E-02  0.1745258E+00
          4   -1    0    0  501    0  0.00000000000E+00  0.00000000000E+00  0.49323119932E+00  0.15032222111E+01  0.14200000000E+01 0.  1.
         -4   -1    0    0    0  501 -0.00000000000E+00 -0.00000000000E+00 -0.99195370833E+02  0.99205534093E+02  0.14200000000E+01 0. -1.
       1023    2    1    2    0    0  0.00000000000E+00  0.00000000000E+00 -0.98702139634E+02  0.10070875630E+03  0.20003530390E+02 0.  0.
        -11    1    3    3    0    0  0.29953182521E+01  0.95412014146E+01 -0.50206215711E+02  0.51192485309E+02  0.51100000000E-03 0.  1.
         11    1    3    3    0    0 -0.29953182521E+01 -0.95412014146E+01 -0.48495923924E+02  0.49516270996E+02  0.51100000000E-03 0. -1.
<mgrwt>
<rscale>  0 0.20003530E+02</rscale>
<asrwt>0</asrwt>
<pdfrwt beam="1">  1        4 0.15435521E-03 0.20003530E+02</pdfrwt>
<pdfrwt beam="2">  1       -4 0.15339292E-01 0.20003530E+02</pdfrwt>
<totfact> 0.97776715E+05</totfact>
</mgrwt>
</event>
<event>
 5    1  0.1171479E-006  0.2000319E+02  0.7818608E-02  0.1745265E+00
          4   -1    0    0  501    0  0.00000000000E+00  0.00000000000E+00  0.12256544655E+02  0.12338528554E+02  0.14200000000E+01 0.  1.
         -4   -1    0    0    0  501 -0.00000000000E+00 -0.00000000000E+00 -0.79895039174E+01  0.81147133558E+01  0.14200000000E+01 0. -1.
       1023    2    1    2    0    0  0.00000000000E+00  0.00000000000E+00  0.42670407375E+01  0.20453241910E+02  0.20003186445E+02 0.  0.
        -11    1    3    3    0    0  0.95863994046E+01 -0.28476141430E+01  0.19754230809E+01  0.10193638039E+02  0.51100000000E-03 0. -1.
         11    1    3    3    0    0 -0.95863994046E+01  0.28476141430E+01  0.22916176566E+01  0.10259603871E+02  0.51100000000E-03 0.  1.
<mgrwt>
<rscale>  0 0.20003186E+02</rscale>
<asrwt>0</asrwt>
<pdfrwt beam="1">  1        4 0.19015602E-02 0.20003186E+02</pdfrwt>
<pdfrwt beam="2">  1       -4 0.12450924E-02 0.20003186E+02</pdfrwt>
<totfact> 0.12982869E+06</totfact>
</mgrwt>
</event>
<event>
 4    1  0.1633016E-006  0.2026535E+02  0.7818608E-02  0.1740102E+00
         -4   -1    0    0    0  501 -0.00000000000E+00  0.00000000000E+00  0.14364810834E+02  0.14434825607E+02  0.14200000000E+01 0. -1.
          4   -1    0    0  501    0  0.00000000000E+00 -0.00000000000E+00 -0.69884379317E+01  0.71312456644E+01  0.14200000000E+01 0.  1.
        -11    1    1    2    0    0 -0.95249805791E+01 -0.32314687956E+01  0.49930571041E+01  0.11229348383E+02  0.51100000000E-03 0. -1.
         11    1    1    2    0    0  0.95249805791E+01  0.32314687956E+01  0.23833157986E+01  0.10336722888E+02  0.51100000000E-03 0.  1.
<mgrwt>
<rscale>  0 0.20265354E+02</rscale>
<asrwt>0</asrwt>
<pdfrwt beam="2">  1        4 0.10915153E-02 0.20265354E+02</pdfrwt>
<pdfrwt beam="1">  1       -4 0.22263419E-02 0.20265354E+02</pdfrwt>
<totfact> 0.12577937E+06</totfact>
</mgrwt>
</event>
<event>
 5    1  0.1176330E-006  0.2000238E+02  0.7818608E-02  0.1745281E+00
          4   -1    0    0  501    0  0.00000000000E+00  0.00000000000E+00  0.75445761777E+01  0.76770456363E+01  0.14200000000E+01 0. -1.
         -4   -1    0    0    0  501 -0.00000000000E+00 -0.00000000000E+00 -0.12970782044E+02  0.13048279076E+02  0.14200000000E+01 0.  1.
       1023    2    1    2    0    0  0.00000000000E+00  0.00000000000E+00 -0.54262058665E+01  0.20725324712E+02  0.20002384216E+02 0.  0.
        -11    1    3    3    0    0  0.43073634172E+01  0.90250050835E+01 -0.25675001684E+01  0.10324541333E+02  0.51100000000E-03 0. -1.
         11    1    3    3    0    0 -0.43073634172E+01 -0.90250050835E+01 -0.28587056981E+01  0.10400783379E+02  0.51100000000E-03 0.  1.
<mgrwt>
<rscale>  0 0.20002384E+02</rscale>
<asrwt>0</asrwt>
<pdfrwt beam="1">  1        4 0.11768553E-02 0.20002384E+02</pdfrwt>
<pdfrwt beam="2">  1       -4 0.20116562E-02 0.20002384E+02</pdfrwt>
<totfact> 0.12967849E+06</totfact>
</mgrwt>
</event>
<event>
 5    1  0.1154861E-006  0.2000232E+02  0.7818608E-02  0.1745282E+00
          4   -1    0    0  501    0  0.00000000000E+00  0.00000000000E+00  0.14468956068E+01  0.20272905310E+01  0.14200000000E+01 0.  1.
         -4   -1    0    0    0  501 -0.00000000000E+00 -0.00000000000E+00 -0.56990095477E+02  0.57007783526E+02  0.14200000000E+01 0. -1.
       1023    2    1    2    0    0  0.00000000000E+00  0.00000000000E+00 -0.55543199870E+02  0.59035074057E+02  0.20002322791E+02 0.  0.
        -11    1    3    3    0    0  0.18979251083E+01 -0.98191473627E+01 -0.27553627718E+02  0.29312457682E+02  0.51100000000E-03 0. -1.
         11    1    3    3    0    0 -0.18979251083E+01  0.98191473627E+01 -0.27989572152E+02  0.29722616375E+02  0.51100000000E-03 0.  1.
<mgrwt>
<rscale>  0 0.20002323E+02</rscale>
<asrwt>0</asrwt>
<pdfrwt beam="1">  1        4 0.26860575E-03 0.20002323E+02</pdfrwt>
<pdfrwt beam="2">  1       -4 0.88137120E-02 0.20002323E+02</pdfrwt>
<totfact> 0.11153423E+06</totfact>
</mgrwt>
</event>
<event>
 5    1  0.1190290E-006  0.2000080E+02  0.7818608E-02  0.1745312E+00
         -4   -1    0    0    0  501 -0.00000000000E+00  0.00000000000E+00  0.95029052451E+01  0.96084134017E+01  0.14200000000E+01 0. -1.
          4   -1    0    0  501    0  0.00000000000E+00 -0.00000000000E+00 -0.10311404349E+02  0.10408720365E+02  0.14200000000E+01 0.  1.
       1023    2    1    2    0    0  0.00000000000E+00  0.00000000000E+00 -0.80849910368E+00  0.20017133767E+02  0.20000799320E+02 0.  0.
        -11    1    3    3    0    0 -0.17505932042E+01  0.98459664908E+01 -0.38524993802E+00  0.10007799482E+02  0.51100000000E-03 0. -1.
         11    1    3    3    0    0  0.17505932042E+01 -0.98459664908E+01 -0.42324916566E+00  0.10009334285E+02  0.51100000000E-03 0.  1.
<mgrwt>
<rscale>  0 0.20000799E+02</rscale>
<asrwt>0</asrwt>
<pdfrwt beam="2">  1        4 0.16019718E-02 0.20000799E+02</pdfrwt>
<pdfrwt beam="1">  1       -4 0.14775873E-02 0.20000799E+02</pdfrwt>
<totfact> 0.13011966E+06</totfact>
</mgrwt>
</event>
<event>
 5    1  0.1154861E-006  0.2000026E+02  0.7818608E-02  0.1745323E+00
          4   -1    0    0  501    0  0.00000000000E+00  0.00000000000E+00  0.22715764555E+01  0.26788914859E+01  0.14200000000E+01 0. -1.
         -4   -1    0    0    0  501 -0.00000000000E+00 -0.00000000000E+00 -0.39980315643E+02  0.40005525105E+02  0.14200000000E+01 0.  1.
       1023    2    1    2    0    0  0.00000000000E+00  0.00000000000E+00 -0.37708739188E+02  0.42684416591E+02  0.20000260213E+02 0.  0.
        -11    1    3    3    0    0 -0.95134437507E+01  0.30816846716E+01 -0.18823481162E+02  0.21314920496E+02  0.51100000000E-03 0.  1.
         11    1    3    3    0    0  0.95134437507E+01 -0.30816846716E+01 -0.18885258025E+02  0.21369496095E+02  0.51100000000E-03 0. -1.
<mgrwt>
<rscale>  0 0.20000260E+02</rscale>
<asrwt>0</asrwt>
<pdfrwt beam="1">  1        4 0.38274444E-03 0.20000260E+02</pdfrwt>
<pdfrwt beam="2">  1       -4 0.61840884E-02 0.20000260E+02</pdfrwt>
<totfact> 0.11839128E+06</totfact>
</mgrwt>
</event>
<event>
 5    1  0.1154861E-006  0.2000355E+02  0.7818608E-02  0.1745258E+00
          4   -1    0    0  501    0  0.00000000000E+00  0.00000000000E+00  0.10808258800E+03  0.10809191565E+03  0.14200000000E+01 0.  1.
         -4   -1    0    0    0  501 -0.00000000000E+00 -0.00000000000E+00 -0.36592136510E+00  0.14663895954E+01  0.14200000000E+01 0. -1.
       1023    2    1    2    0    0  0.00000000000E+00  0.00000000000E+00  0.10771666663E+03  0.10955830524E+03  0.20003549115E+02 0.  0.
        -11    1    3    3    0    0 -0.66193279543E+01  0.74956874374E+01  0.52838660727E+02  0.53776620389E+02  0.51100000000E-03 0.  1.
         11    1    3    3    0    0  0.66193279543E+01 -0.74956874374E+01  0.54878005906E+02  0.55781684855E+02  0.51100000000E-03 0. -1.
<mgrwt>
<rscale>  0 0.20003549E+02</rscale>
<asrwt>0</asrwt>
<pdfrwt beam="1">  1        4 0.16713461E-01 0.20003549E+02</pdfrwt>
<pdfrwt beam="2">  1       -4 0.14166450E-03 0.20003549E+02</pdfrwt>
<totfact> 0.95337592E+05</totfact>
</mgrwt>
</event>
<event>
 5    1  0.1154861E-006  0.2000029E+02  0.7818608E-02  0.1745322E+00
          4   -1    0    0  501    0  0.00000000000E+00  0.00000000000E+00  0.32128747293E+01  0.35126861554E+01  0.14200000000E+01 0.  1.
         -4   -1    0    0    0  501 -0.00000000000E+00 -0.00000000000E+00 -0.29420455298E+02  0.29454704038E+02  0.14200000000E+01 0. -1.
       1023    2    1    2    0    0  0.00000000000E+00  0.00000000000E+00 -0.26207580569E+02  0.32967390193E+02  0.20000288420E+02 0.  0.
        -11    1    3    3    0    0  0.99731757804E+01  0.73380540017E+00 -0.13125809408E+02  0.16501199302E+02  0.51100000000E-03 0.  1.
         11    1    3    3    0    0 -0.99731757804E+01 -0.73380540017E+00 -0.13081771161E+02  0.16466190891E+02  0.51100000000E-03 0. -1.
<mgrwt>
<rscale>  0 0.20000288E+02</rscale>
<asrwt>0</asrwt>
<pdfrwt beam="1">  1        4 0.51998537E-03 0.20000288E+02</pdfrwt>
<pdfrwt beam="2">  1       -4 0.45519207E-02 0.20000288E+02</pdfrwt>
<totfact> 0.12302986E+06</totfact>
</mgrwt>
</event>
<event>
 5    1  0.1154861E-006  0.2000040E+02  0.7818608E-02  0.1745320E+00
         -4   -1    0    0    0  501 -0.00000000000E+00  0.00000000000E+00  0.46528864793E+02  0.46550528020E+02  0.14200000000E+01 0.  1.
          4   -1    0    0  501    0  0.00000000000E+00 -0.00000000000E+00 -0.18900771636E+01  0.23640625382E+01  0.14200000000E+01 0. -1.
       1023    2    1    2    0    0  0.00000000000E+00  0.00000000000E+00  0.44638787630E+02  0.48914590558E+02  0.20000395207E+02 0.  0.
        -11    1    3    3    0    0  0.80343141742E+01  0.59540192402E+01  0.22176735199E+02  0.24327106974E+02  0.51100000000E-03 0.  1.
         11    1    3    3    0    0 -0.80343141742E+01 -0.59540192402E+01  0.22462052430E+02  0.24587483584E+02  0.51100000000E-03 0. -1.
<mgrwt>
<rscale>  0 0.20000395E+02</rscale>
<asrwt>0</asrwt>
<pdfrwt beam="2">  1        4 0.32890794E-03 0.20000395E+02</pdfrwt>
<pdfrwt beam="1">  1       -4 0.71964133E-02 0.20000395E+02</pdfrwt>
<totfact> 0.11565647E+06</totfact>
</mgrwt>
</event>
<event>
 5    1  0.1154861E-006  0.2000056E+02  0.7818608E-02  0.1745317E+00
         -4   -1    0    0    0  501 -0.00000000000E+00  0.00000000000E+00  0.26611498990E+01  0.30163088013E+01  0.14200000000E+01 0.  1.
          4   -1    0    0  501    0  0.00000000000E+00 -0.00000000000E+00 -0.34858495711E+02  0.34887406370E+02  0.14200000000E+01 0. -1.
       1023    2    1    2    0    0  0.00000000000E+00  0.00000000000E+00 -0.32197345812E+02  0.37903715171E+02  0.20000563653E+02 0.  0.
        -11    1    3    3    0    0  0.99173880798E+01  0.12842998789E+01 -0.16175041069E+02  0.19016728592E+02  0.51100000000E-03 0. -1.
         11    1    3    3    0    0 -0.99173880798E+01 -0.12842998789E+01 -0.16022304743E+02  0.18886986579E+02  0.51100000000E-03 0.  1.
<mgrwt>
<rscale>  0 0.20000564E+02</rscale>
<asrwt>0</asrwt>
<pdfrwt beam="2">  1        4 0.53923890E-02 0.20000564E+02</pdfrwt>
<pdfrwt beam="1">  1       -4 0.43895151E-03 0.20000564E+02</pdfrwt>
<totfact> 0.12060631E+06</totfact>
</mgrwt>
</event>
<event>
 5    1  0.1176599E-006  0.2000075E+02  0.7818608E-02  0.1745313E+00
          4   -1    0    0  501    0  0.00000000000E+00  0.00000000000E+00  0.16366581736E+02  0.16428067376E+02  0.14200000000E+01 0.  1.
         -4   -1    0    0    0  501 -0.00000000000E+00 -0.00000000000E+00 -0.59538742075E+01  0.61208674286E+01  0.14200000000E+01 0. -1.
       1023    2    1    2    0    0  0.00000000000E+00  0.00000000000E+00  0.10412707528E+02  0.22548934804E+02  0.20000749555E+02 0.  0.
        -11    1    3    3    0    0  0.48653420385E+01 -0.87366925035E+01  0.52947409385E+01  0.11315283068E+02  0.51100000000E-03 0. -1.
         11    1    3    3    0    0 -0.48653420385E+01  0.87366925035E+01  0.51179665896E+01  0.11233651736E+02  0.51100000000E-03 0.  1.
<mgrwt>
<rscale>  0 0.20000750E+02</rscale>
<asrwt>0</asrwt>
<pdfrwt beam="1">  1        4 0.25355109E-02 0.20000750E+02</pdfrwt>
<pdfrwt beam="2">  1       -4 0.93355596E-03 0.20000750E+02</pdfrwt>
<totfact> 0.12863496E+06</totfact>
</mgrwt>
</event>
<event>
 5    1  0.1154861E-006  0.2000041E+02  0.7818608E-02  0.1745320E+00
         -4   -1    0    0    0  501 -0.00000000000E+00  0.00000000000E+00  0.89643534550E+01  0.90761243307E+01  0.14200000000E+01 0. -1.
          4   -1    0    0  501    0  0.00000000000E+00 -0.00000000000E+00 -0.10928640993E+02  0.11020507881E+02  0.14200000000E+01 0.  1.
       1023    2    1    2    0    0  0.00000000000E+00  0.00000000000E+00 -0.19642875379E+01  0.20096632211E+02  0.20000405014E+02 0.  0.
        -11    1    3    3    0    0 -0.79424987334E+01  0.60761603617E+01 -0.10145330938E+01  0.10051481907E+02  0.51100000000E-03 0. -1.
         11    1    3    3    0    0  0.79424987334E+01 -0.60761603617E+01 -0.94975444415E+00  0.10045150304E+02  0.51100000000E-03 0.  1.
<mgrwt>
<rscale>  0 0.20000405E+02</rscale>
<asrwt>0</asrwt>
<pdfrwt beam="2">  1        4 0.16969938E-02 0.20000405E+02</pdfrwt>
<pdfrwt beam="1">  1       -4 0.13947958E-02 0.20000405E+02</pdfrwt>
<totfact> 0.13007774E+06</totfact>
</mgrwt>
</event>
<event>
 5    1  0.1154861E-006  0.2000179E+02  0.7818608E-02  0.1745293E+00
          4   -1    0    0  501    0  0.00000000000E+00  0.00000000000E+00  0.56968872975E+02  0.56986567610E+02  0.14200000000E+01 0. -1.
         -4   -1    0    0    0  501 -0.00000000000E+00 -0.00000000000E+00 -0.14475405064E+01  0.20277508519E+01  0.14200000000E+01 0.  1.
       1023    2    1    2    0    0  0.00000000000E+00  0.00000000000E+00  0.55521332468E+02  0.59014318462E+02  0.20001785533E+02 0.  0.
        -11    1    3    3    0    0 -0.24408456972E+01  0.96978177571E+01  0.27431338381E+02  0.29197323894E+02  0.51100000000E-03 0.  1.
         11    1    3    3    0    0  0.24408456972E+01 -0.96978177571E+01  0.28089994088E+02  0.29816994568E+02  0.51100000000E-03 0. -1.
<mgrwt>
<rscale>  0 0.20001786E+02</rscale>
<asrwt>0</asrwt>
<pdfrwt beam="1">  1        4 0.88104336E-02 0.20001786E+02</pdfrwt>
<pdfrwt beam="2">  1       -4 0.26869126E-03 0.20001786E+02</pdfrwt>
<totfact> 0.11154828E+06</totfact>
</mgrwt>
</event>
<event>
 5    1  0.1185626E-006  0.2000094E+02  0.7818608E-02  0.1745309E+00
         -4   -1    0    0    0  501 -0.00000000000E+00  0.00000000000E+00  0.32368282115E+02  0.32399414918E+02  0.14200000000E+01 0.  1.
          4   -1    0    0  501    0  0.00000000000E+00 -0.00000000000E+00 -0.28921397781E+01  0.32219361409E+01  0.14200000000E+01 0. -1.
       1023    2    1    2    0    0  0.00000000000E+00  0.00000000000E+00  0.29476142337E+02  0.35621351059E+02  0.20000942084E+02 0.  0.
        -11    1    3    3    0    0  0.90109837333E+01 -0.43372294629E+01  0.14748386110E+02  0.17819210992E+02  0.51100000000E-03 0.  1.
         11    1    3    3    0    0 -0.90109837333E+01  0.43372294629E+01  0.14727756226E+02  0.17802140067E+02  0.51100000000E-03 0. -1.
<mgrwt>
<rscale>  0 0.20000942E+02</rscale>
<asrwt>0</asrwt>
<pdfrwt beam="2">  1        4 0.47270835E-03 0.20000942E+02</pdfrwt>
<pdfrwt beam="1">  1       -4 0.50074996E-02 0.20000942E+02</pdfrwt>
<totfact> 0.12170326E+06</totfact>
</mgrwt>
</event>
<event>
 5    1  0.1154861E-006  0.2000038E+02  0.7818608E-02  0.1745320E+00
         -4   -1    0    0    0  501 -0.00000000000E+00  0.00000000000E+00  0.23070378991E+01  0.27090263690E+01  0.14200000000E+01 0.  1.
          4   -1    0    0  501    0  0.00000000000E+00 -0.00000000000E+00 -0.39457646996E+02  0.39483190176E+02  0.14200000000E+01 0. -1.
       1023    2    1    2    0    0  0.00000000000E+00  0.00000000000E+00 -0.37150609097E+02  0.42192216545E+02  0.20000384514E+02 0.  0.
        -11    1    3    3    0    0  0.90704738343E+01  0.42104692606E+01 -0.18676430684E+02  0.21185150704E+02  0.51100000000E-03 0. -1.
         11    1    3    3    0    0 -0.90704738343E+01 -0.42104692606E+01 -0.18474178413E+02  0.21007065842E+02  0.51100000000E-03 0.  1.
<mgrwt>
<rscale>  0 0.20000385E+02</rscale>
<asrwt>0</asrwt>
<pdfrwt beam="2">  1        4 0.61032938E-02 0.20000385E+02</pdfrwt>
<pdfrwt beam="1">  1       -4 0.38781599E-03 0.20000385E+02</pdfrwt>
<totfact> 0.11861316E+06</totfact>
</mgrwt>
</event>
<event>
 4    1  0.1154861E-006  0.2005220E+02  0.7818608E-02  0.1744292E+00
         -4   -1    0    0    0  501 -0.00000000000E+00  0.00000000000E+00  0.26240945871E+01  0.29836676092E+01  0.14200000000E+01 0.  1.
          4   -1    0    0  501    0  0.00000000000E+00 -0.00000000000E+00 -0.35476568647E+02  0.35504976031E+02  0.14200000000E+01 0. -1.
        -11    1    1    2    0    0 -0.73051317774E+00  0.99984602352E+01 -0.16696340896E+02  0.19474872430E+02  0.51100000000E-03 0. -1.
         11    1    1    2    0    0  0.73051317774E+00 -0.99984602352E+01 -0.16156133164E+02  0.19013771211E+02  0.51100000000E-03 0.  1.
<mgrwt>
<rscale>  0 0.20052198E+02</rscale>
<asrwt>0</asrwt>
<pdfrwt beam="2">  1        4 0.54877780E-02 0.20052198E+02</pdfrwt>
<pdfrwt beam="1">  1       -4 0.43355153E-03 0.20052198E+02</pdfrwt>
<totfact> 0.11970168E+06</totfact>
</mgrwt>
</event>
<event>
 4    1  0.1154861E-006  0.2019604E+02  0.7818608E-02  0.1741457E+00
          4   -1    0    0  501    0  0.00000000000E+00  0.00000000000E+00  0.76064058602E+01  0.77378168827E+01  0.14200000000E+01 0.  1.
         -4   -1    0    0    0  501 -0.00000000000E+00 -0.00000000000E+00 -0.13120949161E+02  0.13197564430E+02  0.14200000000E+01 0. -1.
        -11    1    1    2    0    0  0.88046817634E+01  0.48793545346E+01 -0.35862205429E+01  0.10686042283E+02  0.51100000000E-03 0. -1.
         11    1    1    2    0    0 -0.88046817634E+01 -0.48793545346E+01 -0.19283227578E+01  0.10249339030E+02  0.51100000000E-03 0.  1.
<mgrwt>
<rscale>  0 0.20196039E+02</rscale>
<asrwt>0</asrwt>
<pdfrwt beam="1">  1        4 0.11862183E-02 0.20196039E+02</pdfrwt>
<pdfrwt beam="2">  1       -4 0.20346096E-02 0.20196039E+02</pdfrwt>
<totfact> 0.12702899E+06</totfact>
</mgrwt>
</event>
<event>
 5    1  0.1154861E-006  0.2000210E+02  0.7818608E-02  0.1745286E+00
          4   -1    0    0  501    0  0.00000000000E+00  0.00000000000E+00  0.16601619874E+01  0.21846138845E+01  0.14200000000E+01 0.  1.
         -4   -1    0    0    0  501 -0.00000000000E+00 -0.00000000000E+00 -0.51493983174E+02  0.51513558440E+02  0.14200000000E+01 0. -1.
       1023    2    1    2    0    0  0.00000000000E+00  0.00000000000E+00 -0.49833821187E+02  0.53698172325E+02  0.20002099313E+02 0.  0.
        -11    1    3    3    0    0 -0.81695294980E+01  0.57683505052E+01 -0.24710452528E+02  0.26657485706E+02  0.51100000000E-03 0.  1.
         11    1    3    3    0    0  0.81695294980E+01 -0.57683505052E+01 -0.25123368659E+02  0.27040686619E+02  0.51100000000E-03 0. -1.
<mgrwt>
<rscale>  0 0.20002099E+02</rscale>
<asrwt>0</asrwt>
<pdfrwt beam="1">  1        4 0.29725782E-03 0.20002099E+02</pdfrwt>
<pdfrwt beam="2">  1       -4 0.79639985E-02 0.20002099E+02</pdfrwt>
<totfact> 0.11365029E+06</totfact>
</mgrwt>
</event>
<event>
 5    1  0.1154861E-006  0.2000203E+02  0.7818608E-02  0.1745288E+00
         -4   -1    0    0    0  501 -0.00000000000E+00  0.00000000000E+00  0.40521711617E+02  0.40546584472E+02  0.14200000000E+01 0. -1.
          4   -1    0    0  501    0  0.00000000000E+00 -0.00000000000E+00 -0.22362434196E+01  0.26489969105E+01  0.14200000000E+01 0.  1.
       1023    2    1    2    0    0  0.00000000000E+00  0.00000000000E+00  0.38285468197E+02  0.43195581383E+02  0.20002029295E+02 0.  0.
        -11    1    3    3    0    0  0.96591108999E+01 -0.25908419281E+01  0.18933262998E+02  0.21412130517E+02  0.51100000000E-03 0. -1.
         11    1    3    3    0    0 -0.96591108999E+01  0.25908419281E+01  0.19352205199E+02  0.21783450865E+02  0.51100000000E-03 0.  1.
<mgrwt>
<rscale>  0 0.20002029E+02</rscale>
<asrwt>0</asrwt>
<pdfrwt beam="2">  1        4 0.37770103E-03 0.20002029E+02</pdfrwt>
<pdfrwt beam="1">  1       -4 0.62677728E-02 0.20002029E+02</pdfrwt>
<totfact> 0.11813923E+06</totfact>
</mgrwt>
</event>
<event>
 5    1  0.1154861E-006  0.2000015E+02  0.7818608E-02  0.1745325E+00
         -4   -1    0    0    0  501 -0.00000000000E+00  0.00000000000E+00  0.30838712845E+01  0.33950938278E+01  0.14200000000E+01 0.  1.
          4   -1    0    0  501    0  0.00000000000E+00 -0.00000000000E+00 -0.30541076231E+02  0.30574069689E+02  0.14200000000E+01 0. -1.
       1023    2    1    2    0    0  0.00000000000E+00  0.00000000000E+00 -0.27457204946E+02  0.33969163517E+02  0.20000149163E+02 0.  0.
        -11    1    3    3    0    0  0.36453085729E+01 -0.93119910263E+01 -0.13739332540E+02  0.16993254849E+02  0.51100000000E-03 0.  1.
         11    1    3    3    0    0 -0.36453085729E+01  0.93119910263E+01 -0.13717872407E+02  0.16975908668E+02  0.51100000000E-03 0. -1.
<mgrwt>
<rscale>  0 0.20000149E+02</rscale>
<asrwt>0</asrwt>
<pdfrwt beam="2">  1        4 0.47251051E-02 0.20000149E+02</pdfrwt>
<pdfrwt beam="1">  1       -4 0.50091991E-03 0.20000149E+02</pdfrwt>
<totfact> 0.12252899E+06</totfact>
</mgrwt>
</event>
<event>
 5    1  0.1154861E-006  0.2000157E+02  0.7818608E-02  0.1745297E+00
         -4   -1    0    0    0  501 -0.00000000000E+00  0.00000000000E+00  0.32750684000E+00  0.14572785356E+01  0.14200000000E+01 0. -1.
          4   -1    0    0  501    0  0.00000000000E+00 -0.00000000000E+00 -0.11093868440E+03  0.11094777193E+03  0.14200000000E+01 0.  1.
       1023    2    1    2    0    0  0.00000000000E+00  0.00000000000E+00 -0.11061117756E+03  0.11240505047E+03  0.20001569167E+02 0.  0.
        -11    1    3    3    0    0  0.11215216628E+00  0.10000154171E+02 -0.55274563742E+02  0.56171995324E+02  0.51100000000E-03 0. -1.
         11    1    3    3    0    0 -0.11215216628E+00 -0.10000154171E+02 -0.55336613820E+02  0.56233055144E+02  0.51100000000E-03 0.  1.
<mgrwt>
<rscale>  0 0.20001569E+02</rscale>
<asrwt>0</asrwt>
<pdfrwt beam="2">  1        4 0.17155083E-01 0.20001569E+02</pdfrwt>
<pdfrwt beam="1">  1       -4 0.13799031E-03 0.20001569E+02</pdfrwt>
<totfact> 0.94599723E+05</totfact>
</mgrwt>
</event>
<event>
 5    1  0.1177732E-006  0.2000079E+02  0.7818608E-02  0.1745312E+00
          4   -1    0    0  501    0  0.00000000000E+00  0.00000000000E+00  0.15941914541E+02  0.16005031685E+02  0.14200000000E+01 0.  1.
         -4   -1    0    0    0  501 -0.00000000000E+00 -0.00000000000E+00 -0.61162602864E+01  0.62789362069E+01  0.14200000000E+01 0. -1.
       1023    2    1    2    0    0  0.00000000000E+00  0.00000000000E+00  0.98256542548E+01  0.22283967892E+02  0.20000793571E+02 0.  0.
        -11    1    3    3    0    0 -0.58497597492E+01  0.81109777204E+01  0.48939553584E+01  0.11133662830E+02  0.51100000000E-03 0. -1.
         11    1    3    3    0    0  0.58497597492E+01 -0.81109777204E+01  0.49316988964E+01  0.11150305062E+02  0.51100000000E-03 0.  1.
<mgrwt>
<rscale>  0 0.20000794E+02</rscale>
<asrwt>0</asrwt>
<pdfrwt beam="1">  1        4 0.24699709E-02 0.20000794E+02</pdfrwt>
<pdfrwt beam="2">  1       -4 0.95833182E-03 0.20000794E+02</pdfrwt>
<totfact> 0.12878733E+06</totfact>
</mgrwt>
</event>
<event>
 5    1  0.1154861E-006  0.2000382E+02  0.7818608E-02  0.1745252E+00
          4   -1    0    0  501    0  0.00000000000E+00  0.00000000000E+00  0.32761323307E+01  0.35706362246E+01  0.14200000000E+01 0.  1.
         -4   -1    0    0    0  501 -0.00000000000E+00 -0.00000000000E+00 -0.28909351348E+02  0.28944204866E+02  0.14200000000E+01 0. -1.
       1023    2    1    2    0    0  0.00000000000E+00  0.00000000000E+00 -0.25633219017E+02  0.32514841091E+02  0.20003823984E+02 0.  0.
        -11    1    3    3    0    0 -0.92530642877E+01  0.37969079127E+01 -0.12898445202E+02  0.16321936077E+02  0.51100000000E-03 0. -1.
         11    1    3    3    0    0  0.92530642877E+01 -0.37969079127E+01 -0.12734773815E+02  0.16192905014E+02  0.51100000000E-03 0.  1.
<mgrwt>
<rscale>  0 0.20003824E+02</rscale>
<asrwt>0</asrwt>
<pdfrwt beam="1">  1        4 0.52935556E-03 0.20003824E+02</pdfrwt>
<pdfrwt beam="2">  1       -4 0.44729275E-02 0.20003824E+02</pdfrwt>
<totfact> 0.12321470E+06</totfact>
</mgrwt>
</event>
<event>
 5    1  0.1154861E-006  0.2000125E+02  0.7818608E-02  0.1745303E+00
          4   -1    0    0  501    0  0.00000000000E+00  0.00000000000E+00  0.98283310770E+00  0.17269513362E+01  0.14200000000E+01 0.  1.
         -4   -1    0    0    0  501 -0.00000000000E+00 -0.00000000000E+00 -0.73062913535E+02  0.73076711298E+02  0.14200000000E+01 0. -1.
       1023    2    1    2    0    0  0.00000000000E+00  0.00000000000E+00 -0.72080080427E+02  0.74803662635E+02  0.20001248690E+02 0.  0.
        -11    1    3    3    0    0 -0.95970966540E+01 -0.28102244591E+01 -0.35650271133E+02  0.37026253629E+02  0.51100000000E-03 0. -1.
         11    1    3    3    0    0  0.95970966540E+01  0.28102244591E+01 -0.36429809294E+02  0.37777409005E+02  0.51100000000E-03 0.  1.
<mgrwt>
<rscale>  0 0.20001249E+02</rscale>
<asrwt>0</asrwt>
<pdfrwt beam="1">  1        4 0.20950638E-03 0.20001249E+02</pdfrwt>
<pdfrwt beam="2">  1       -4 0.11298746E-01 0.20001249E+02</pdfrwt>
<totfact> 0.10583060E+06</totfact>
</mgrwt>
</event>
<event>
 5    1  0.1154861E-006  0.2000127E+02  0.7818608E-02  0.1745303E+00
          4   -1    0    0  501    0  0.00000000000E+00  0.00000000000E+00  0.49346943540E+02  0.49367370163E+02  0.14200000000E+01 0.  1.
         -4   -1    0    0    0  501 -0.00000000000E+00 -0.00000000000E+00 -0.17545084385E+01  0.22571441825E+01  0.14200000000E+01 0. -1.
       1023    2    1    2    0    0  0.00000000000E+00  0.00000000000E+00  0.47592435102E+02  0.51624514345E+02  0.20001265021E+02 0.  0.
        -11    1    3    3    0    0 -0.46272916968E+01  0.88654713868E+01  0.23628170853E+02  0.25657335588E+02  0.51100000000E-03 0. -1.
         11    1    3    3    0    0  0.46272916968E+01 -0.88654713868E+01  0.23964264249E+02  0.25967178757E+02  0.51100000000E-03 0.  1.
<mgrwt>
<rscale>  0 0.20001265E+02</rscale>
<asrwt>0</asrwt>
<pdfrwt beam="1">  1        4 0.76320730E-02 0.20001265E+02</pdfrwt>
<pdfrwt beam="2">  1       -4 0.31015994E-03 0.20001265E+02</pdfrwt>
<totfact> 0.11450973E+06</totfact>
</mgrwt>
</event>
<event>
 5    1  0.1165491E-006  0.2000128E+02  0.7818608E-02  0.1745303E+00
         -4   -1    0    0    0  501 -0.00000000000E+00  0.00000000000E+00  0.23697143455E+01  0.27625977049E+01  0.14200000000E+01 0. -1.
          4   -1    0    0  501    0  0.00000000000E+00 -0.00000000000E+00 -0.38566844348E+02  0.38592977119E+02  0.14200000000E+01 0.  1.
       1023    2    1    2    0    0  0.00000000000E+00  0.00000000000E+00 -0.36197130002E+02  0.41355574824E+02  0.20001283675E+02 0.  0.
        -11    1    3    3    0    0  0.75132735807E+01  0.65993021093E+01 -0.17864923996E+02  0.20473289376E+02  0.51100000000E-03 0.  1.
         11    1    3    3    0    0 -0.75132735807E+01 -0.65993021093E+01 -0.18332206006E+02  0.20882285448E+02  0.51100000000E-03 0. -1.
<mgrwt>
<rscale>  0 0.20001284E+02</rscale>
<asrwt>0</asrwt>
<pdfrwt beam="2">  1        4 0.59655923E-02 0.20001284E+02</pdfrwt>
<pdfrwt beam="1">  1       -4 0.39680347E-03 0.20001284E+02</pdfrwt>
<totfact> 0.11898433E+06</totfact>
</mgrwt>
</event>
<event>
 5    1  0.1154861E-006  0.2000049E+02  0.7818608E-02  0.1745318E+00
          4   -1    0    0  501    0  0.00000000000E+00  0.00000000000E+00  0.46587743542E+01  0.48703776530E+01  0.14200000000E+01 0. -1.
         -4   -1    0    0    0  501 -0.00000000000E+00 -0.00000000000E+00 -0.20752849299E+02  0.20801373850E+02  0.14200000000E+01 0.  1.
       1023    2    1    2    0    0  0.00000000000E+00  0.00000000000E+00 -0.16094074945E+02  0.25671751503E+02  0.20000489416E+02 0.  0.
        -11    1    3    3    0    0 -0.89676637162E+01 -0.44250879884E+01 -0.79609556392E+01  0.12781909528E+02  0.51100000000E-03 0.  1.
         11    1    3    3    0    0  0.89676637162E+01  0.44250879884E+01 -0.81331193059E+01  0.12889841975E+02  0.51100000000E-03 0. -1.
<mgrwt>
<rscale>  0 0.20000489E+02</rscale>
<asrwt>0</asrwt>
<pdfrwt beam="1">  1        4 0.73674437E-03 0.20000489E+02</pdfrwt>
<pdfrwt beam="2">  1       -4 0.32127558E-02 0.20000489E+02</pdfrwt>
<totfact> 0.12687646E+06</totfact>
</mgrwt>
</event>
<event>
 5    1  0.1154861E-006  0.2000128E+02  0.7818608E-02  0.1745303E+00
          4   -1    0    0  501    0  0.00000000000E+00  0.00000000000E+00  0.53809232004E+02  0.53827965305E+02  0.14200000000E+01 0. -1.
         -4   -1    0    0    0  501 -0.00000000000E+00 -0.00000000000E+00 -0.15655160049E+01  0.21135847183E+01  0.14200000000E+01 0.  1.
       1023    2    1    2    0    0  0.00000000000E+00  0.00000000000E+00  0.52243715999E+02  0.55941550023E+02  0.20001278899E+02 0.  0.
        -11    1    3    3    0    0 -0.81828992219E+01 -0.57490745306E+01  0.26214261684E+02  0.28057070651E+02  0.51100000000E-03 0. -1.
         11    1    3    3    0    0  0.81828992219E+01  0.57490745306E+01  0.26029454315E+02  0.27884479372E+02  0.51100000000E-03 0.  1.
<mgrwt>
<rscale>  0 0.20001279E+02</rscale>
<asrwt>0</asrwt>
<pdfrwt beam="1">  1        4 0.83219437E-02 0.20001279E+02</pdfrwt>
<pdfrwt beam="2">  1       -4 0.28444877E-03 0.20001279E+02</pdfrwt>
<totfact> 0.11275862E+06</totfact>
</mgrwt>
</event>
<event>
 5    1  0.1154861E-006  0.2000019E+02  0.7818608E-02  0.1745324E+00
          4   -1    0    0  501    0  0.00000000000E+00  0.00000000000E+00  0.11491927588E+02  0.11579326392E+02  0.14200000000E+01 0. -1.
         -4   -1    0    0    0  501 -0.00000000000E+00 -0.00000000000E+00 -0.85225922604E+01  0.86400797935E+01  0.14200000000E+01 0.  1.
       1023    2    1    2    0    0  0.00000000000E+00  0.00000000000E+00  0.29693353279E+01  0.20219406186E+02  0.20000185854E+02 0.  0.
        -11    1    3    3    0    0  0.10679888272E+01  0.99428908284E+01  0.14982360850E+01  0.10111695693E+02  0.51100000000E-03 0.  1.
         11    1    3    3    0    0 -0.10679888272E+01 -0.99428908284E+01  0.14710992430E+01  0.10107710493E+02  0.51100000000E-03 0. -1.
<mgrwt>
<rscale>  0 0.20000186E+02</rscale>
<asrwt>0</asrwt>
<pdfrwt beam="1">  1        4 0.17837494E-02 0.20000186E+02</pdfrwt>
<pdfrwt beam="2">  1       -4 0.13269285E-02 0.20000186E+02</pdfrwt>
<totfact> 0.13000739E+06</totfact>
</mgrwt>
</event>
<event>
 4    1  0.1154861E-006  0.2026692E+02  0.7818608E-02  0.1740072E+00
          4   -1    0    0  501    0  0.00000000000E+00  0.00000000000E+00  0.66411684891E+02  0.66426864220E+02  0.14200000000E+01 0. -1.
         -4   -1    0    0    0  501 -0.00000000000E+00 -0.00000000000E+00 -0.12015257036E+01  0.18601247314E+01  0.14200000000E+01 0.  1.
        -11    1    1    2    0    0  0.45965430978E+01  0.90240945689E+01  0.33793990177E+02  0.35278835916E+02  0.51100000000E-03 0.  1.
         11    1    1    2    0    0 -0.45965430978E+01 -0.90240945689E+01  0.31416169011E+02  0.33008153035E+02  0.51100000000E-03 0. -1.
<mgrwt>
<rscale>  0 0.20266919E+02</rscale>
<asrwt>0</asrwt>
<pdfrwt beam="1">  1        4 0.10269010E-01 0.20266919E+02</pdfrwt>
<pdfrwt beam="2">  1       -4 0.23667923E-03 0.20266919E+02</pdfrwt>
<totfact> 0.10527061E+06</totfact>
</mgrwt>
</event>
<event>
 5    1  0.1159224E-006  0.2000076E+02  0.7818608E-02  0.1745313E+00
          4   -1    0    0  501    0  0.00000000000E+00  0.00000000000E+00  0.19104749263E+02  0.19157448797E+02  0.14200000000E+01 0.  1.
         -4   -1    0    0    0  501 -0.00000000000E+00 -0.00000000000E+00 -0.50772385152E+01  0.52720727366E+01  0.14200000000E+01 0. -1.
       1023    2    1    2    0    0  0.00000000000E+00  0.00000000000E+00  0.14027510748E+02  0.24429521534E+02  0.20000761600E+02 0.  0.
        -11    1    3    3    0    0  0.77361652570E+01  0.63371376580E+01  0.70051790412E+01  0.12209836209E+02  0.51100000000E-03 0.  1.
         11    1    3    3    0    0 -0.77361652570E+01 -0.63371376580E+01  0.70223317066E+01  0.12219685325E+02  0.51100000000E-03 0. -1.
<mgrwt>
<rscale>  0 0.20000762E+02</rscale>
<asrwt>0</asrwt>
<pdfrwt beam="1">  1        4 0.29582333E-02 0.20000762E+02</pdfrwt>
<pdfrwt beam="2">  1       -4 0.80015467E-03 0.20000762E+02</pdfrwt>
<totfact> 0.12756574E+06</totfact>
</mgrwt>
</event>
<event>
 5    1  0.1154861E-006  0.2000124E+02  0.7818608E-02  0.1745303E+00
          4   -1    0    0  501    0  0.00000000000E+00  0.00000000000E+00  0.70466501680E+00  0.15852295688E+01  0.14200000000E+01 0. -1.
         -4   -1    0    0    0  501 -0.00000000000E+00 -0.00000000000E+00 -0.86462480581E+02  0.86474140344E+02  0.14200000000E+01 0.  1.
       1023    2    1    2    0    0  0.00000000000E+00  0.00000000000E+00 -0.85757815565E+02  0.88059369913E+02  0.20001242439E+02 0.  0.
        -11    1    3    3    0    0 -0.74296471551E+01 -0.66942339082E+01 -0.42879838335E+02  0.44030591188E+02  0.51100000000E-03 0. -1.
         11    1    3    3    0    0  0.74296471551E+01  0.66942339082E+01 -0.42877977230E+02  0.44028778725E+02  0.51100000000E-03 0.  1.
<mgrwt>
<rscale>  0 0.20001242E+02</rscale>
<asrwt>0</asrwt>
<pdfrwt beam="1">  1        4 0.17704271E-03 0.20001242E+02</pdfrwt>
<pdfrwt beam="2">  1       -4 0.13370548E-01 0.20001242E+02</pdfrwt>
<totfact> 0.10153957E+06</totfact>
</mgrwt>
</event>
<event>
 5    1  0.1161029E-006  0.2000137E+02  0.7818608E-02  0.1745301E+00
          4   -1    0    0  501    0  0.00000000000E+00  0.00000000000E+00  0.37766441897E+02  0.37793128126E+02  0.14200000000E+01 0.  1.
         -4   -1    0    0    0  501 -0.00000000000E+00 -0.00000000000E+00 -0.24281602388E+01  0.28128921318E+01  0.14200000000E+01 0. -1.
       1023    2    1    2    0    0  0.00000000000E+00  0.00000000000E+00  0.35338281658E+02  0.40606020258E+02  0.20001368219E+02 0.  0.
        -11    1    3    3    0    0  0.97504195294E+01  0.22227267278E+01  0.17567891062E+02  0.20214895293E+02  0.51100000000E-03 0.  1.
         11    1    3    3    0    0 -0.97504195294E+01 -0.22227267278E+01  0.17770390597E+02  0.20391124965E+02  0.51100000000E-03 0. -1.
<mgrwt>
<rscale>  0 0.20001368E+02</rscale>
<asrwt>0</asrwt>
<pdfrwt beam="1">  1        4 0.58418691E-02 0.20001368E+02</pdfrwt>
<pdfrwt beam="2">  1       -4 0.40521068E-03 0.20001368E+02</pdfrwt>
<totfact> 0.11932844E+06</totfact>
</mgrwt>
</event>
<event>
 5    1  0.1154861E-006  0.2000136E+02  0.7818608E-02  0.1745301E+00
         -4   -1    0    0    0  501 -0.00000000000E+00  0.00000000000E+00  0.28212877672E+01  0.31584908841E+01  0.14200000000E+01 0.  1.
          4   -1    0    0  501    0  0.00000000000E+00 -0.00000000000E+00 -0.33097316247E+02  0.33127763926E+02  0.14200000000E+01 0. -1.
       1023    2    1    2    0    0  0.00000000000E+00  0.00000000000E+00 -0.30276028480E+02  0.36286254810E+02  0.20001359645E+02 0.  0.
        -11    1    3    3    0    0 -0.91181022401E+01 -0.41070339959E+01 -0.14996554604E+02  0.18025098251E+02  0.51100000000E-03 0. -1.
         11    1    3    3    0    0  0.91181022401E+01  0.41070339959E+01 -0.15279473876E+02  0.18261156559E+02  0.51100000000E-03 0.  1.
<mgrwt>
<rscale>  0 0.20001360E+02</rscale>
<asrwt>0</asrwt>
<pdfrwt beam="2">  1        4 0.51201754E-02 0.20001360E+02</pdfrwt>
<pdfrwt beam="1">  1       -4 0.46232513E-03 0.20001360E+02</pdfrwt>
<totfact> 0.12137422E+06</totfact>
</mgrwt>
</event>
<event>
 5    1  0.1154861E-006  0.2000014E+02  0.7818608E-02  0.1745325E+00
         -4   -1    0    0    0  501 -0.00000000000E+00  0.00000000000E+00  0.23703640128E+02  0.23746135587E+02  0.14200000000E+01 0.  1.
          4   -1    0    0  501    0  0.00000000000E+00 -0.00000000000E+00 -0.40516236398E+01  0.42932568195E+01  0.14200000000E+01 0. -1.
       1023    2    1    2    0    0  0.00000000000E+00  0.00000000000E+00  0.19652016489E+02  0.28039392407E+02  0.20000144362E+02 0.  0.
        -11    1    3    3    0    0  0.49473091969E+01  0.86905449023E+01  0.98289392659E+01  0.14021750474E+02  0.51100000000E-03 0.  1.
         11    1    3    3    0    0 -0.49473091969E+01 -0.86905449023E+01  0.98230772228E+01  0.14017641933E+02  0.51100000000E-03 0. -1.
<mgrwt>
<rscale>  0 0.20000144E+02</rscale>
<asrwt>0</asrwt>
<pdfrwt beam="2">  1        4 0.64518276E-03 0.20000144E+02</pdfrwt>
<pdfrwt beam="1">  1       -4 0.36685699E-02 0.20000144E+02</pdfrwt>
<totfact> 0.12559255E+06</totfact>
</mgrwt>
</event>
<event>
 5    1  0.1154861E-006  0.2000055E+02  0.7818608E-02  0.1745317E+00
         -4   -1    0    0    0  501 -0.00000000000E+00  0.00000000000E+00  0.21943276246E+02  0.21989173982E+02  0.14200000000E+01 0.  1.
          4   -1    0    0  501    0  0.00000000000E+00 -0.00000000000E+00 -0.43948232841E+01  0.46185356661E+01  0.14200000000E+01 0. -1.
       1023    2    1    2    0    0  0.00000000000E+00  0.00000000000E+00  0.17548452962E+02  0.26607709648E+02  0.20000550276E+02 0.  0.
        -11    1    3    3    0    0  0.75394135423E+01 -0.65698351316E+01  0.87789034104E+01  0.13306939376E+02  0.51100000000E-03 0. -1.
         11    1    3    3    0    0 -0.75394135423E+01  0.65698351316E+01  0.87695495516E+01  0.13300770272E+02  0.51100000000E-03 0.  1.
<mgrwt>
<rscale>  0 0.20000550E+02</rscale>
<asrwt>0</asrwt>
<pdfrwt beam="2">  1        4 0.69686590E-03 0.20000550E+02</pdfrwt>
<pdfrwt beam="1">  1       -4 0.33966279E-02 0.20000550E+02</pdfrwt>
<totfact> 0.12636147E+06</totfact>
</mgrwt>
</event>
<event>
 5    1  0.1154861E-006  0.2000023E+02  0.7818608E-02  0.1745323E+00
         -4   -1    0    0    0  501 -0.00000000000E+00  0.00000000000E+00  0.22118032060E+02  0.22163567904E+02  0.14200000000E+01 0. -1.
          4   -1    0    0  501    0  0.00000000000E+00 -0.00000000000E+00 -0.43582531484E+01  0.45837507028E+01  0.14200000000E+01 0.  1.
       1023    2    1    2    0    0  0.00000000000E+00  0.00000000000E+00  0.17759778912E+02  0.26747318606E+02  0.20000232640E+02 0.  0.
        -11    1    3    3    0    0  0.81862718775E+01 -0.57433510702E+01  0.89261660320E+01  0.13404386187E+02  0.51100000000E-03 0. -1.
         11    1    3    3    0    0 -0.81862718775E+01  0.57433510702E+01  0.88336128798E+01  0.13342932419E+02  0.51100000000E-03 0.  1.
<mgrwt>
<rscale>  0 0.20000233E+02</rscale>
<asrwt>0</asrwt>
<pdfrwt beam="2">  1        4 0.69134923E-03 0.20000233E+02</pdfrwt>
<pdfrwt beam="1">  1       -4 0.34236228E-02 0.20000233E+02</pdfrwt>
<totfact> 0.12628942E+06</totfact>
</mgrwt>
</event>
<event>
 4    1  0.1154861E-006  0.2002231E+02  0.7818608E-02  0.1744885E+00
         -4   -1    0    0    0  501 -0.00000000000E+00  0.00000000000E+00  0.22626263263E+01  0.26713064018E+01  0.14200000000E+01 0. -1.
          4   -1    0    0  501    0  0.00000000000E+00 -0.00000000000E+00 -0.40203867762E+02  0.40228937136E+02  0.14200000000E+01 0.  1.
        -11    1    1    2    0    0  0.70430902263E+01  0.71145211434E+01 -0.19060052174E+02  0.21529215503E+02  0.51100000000E-03 0.  1.
         11    1    1    2    0    0 -0.70430902263E+01 -0.71145211434E+01 -0.18881189263E+02  0.21371028035E+02  0.51100000000E-03 0. -1.
<mgrwt>
<rscale>  0 0.20022315E+02</rscale>
<asrwt>0</asrwt>
<pdfrwt beam="2">  1        4 0.62185753E-02 0.20022315E+02</pdfrwt>
<pdfrwt beam="1">  1       -4 0.38146173E-03 0.20022315E+02</pdfrwt>
<totfact> 0.11803026E+06</totfact>
</mgrwt>
</event>
<event>
 4    1  0.1154861E-006  0.2002120E+02  0.7818608E-02  0.1744907E+00
          4   -1    0    0  501    0  0.00000000000E+00  0.00000000000E+00  0.23591238734E+01  0.27535187397E+01  0.14200000000E+01 0.  1.
         -4   -1    0    0    0  501 -0.00000000000E+00 -0.00000000000E+00 -0.38793305332E+02  0.38819285653E+02  0.14200000000E+01 0. -1.
        -11    1    1    2    0    0 -0.96713196369E+00  0.99626172284E+01 -0.17901943039E+02  0.20510208461E+02  0.51100000000E-03 0.  1.
         11    1    1    2    0    0  0.96713196369E+00 -0.99626172284E+01 -0.18532238420E+02  0.21062595932E+02  0.51100000000E-03 0. -1.
<mgrwt>
<rscale>  0 0.20021201E+02</rscale>
<asrwt>0</asrwt>
<pdfrwt beam="1">  1        4 0.39527872E-03 0.20021201E+02</pdfrwt>
<pdfrwt beam="2">  1       -4 0.60005369E-02 0.20021201E+02</pdfrwt>
<totfact> 0.11864567E+06</totfact>
</mgrwt>
</event>
<event>
 5    1  0.1154861E-006  0.2000047E+02  0.7818608E-02  0.1745319E+00
         -4   -1    0    0    0  501 -0.00000000000E+00  0.00000000000E+00  0.10688439123E+02  0.10782352753E+02  0.14200000000E+01 0. -1.
          4   -1    0    0  501    0  0.00000000000E+00 -0.00000000000E+00 -0.91665958437E+01  0.92759301077E+01  0.14200000000E+01 0.  1.
       1023    2    1    2    0    0  0.00000000000E+00  0.00000000000E+00  0.15218432796E+01  0.20058282861E+02  0.20000467603E+02 0.  0.
        -11    1    3    3    0    0 -0.99047770154E+01  0.13784230567E+01  0.75666914926E+00  0.10028818789E+02  0.51100000000E-03 0. -1.
         11    1    3    3    0    0  0.99047770154E+01 -0.13784230567E+01  0.76517413031E+00  0.10029464071E+02  0.51100000000E-03 0.  1.
<mgrwt>
<rscale>  0 0.20000468E+02</rscale>
<asrwt>0</asrwt>
<pdfrwt beam="2">  1        4 0.14258800E-02 0.20000468E+02</pdfrwt>
<pdfrwt beam="1">  1       -4 0.16600097E-02 0.20000468E+02</pdfrwt>
<totfact> 0.13009965E+06</totfact>
</mgrwt>
</event>
<event>
 5    1  0.1154861E-006  0.2000309E+02  0.7818608E-02  0.1745267E+00
          4   -1    0    0  501    0  0.00000000000E+00  0.00000000000E+00  0.58153027309E+02  0.58170361742E+02  0.14200000000E+01 0.  1.
         -4   -1    0    0    0  501 -0.00000000000E+00 -0.00000000000E+00 -0.14064025855E+01  0.19985915622E+01  0.14200000000E+01 0. -1.
       1023    2    1    2    0    0  0.00000000000E+00  0.00000000000E+00  0.56746624723E+02  0.60168953304E+02  0.20003087867E+02 0.  0.
        -11    1    3    3    0    0  0.51061878524E+01 -0.85996265963E+01  0.28567060384E+02  0.30267204549E+02  0.51100000000E-03 0. -1.
         11    1    3    3    0    0 -0.51061878524E+01  0.85996265963E+01  0.28179564339E+02  0.29901748755E+02  0.51100000000E-03 0.  1.
<mgrwt>
<rscale>  0 0.20003088E+02</rscale>
<asrwt>0</asrwt>
<pdfrwt beam="1">  1        4 0.89935054E-02 0.20003088E+02</pdfrwt>
<pdfrwt beam="2">  1       -4 0.26325606E-03 0.20003088E+02</pdfrwt>
<totfact> 0.11108922E+06</totfact>
</mgrwt>
</event>
<event>
 5    1  0.1154861E-006  0.2000010E+02  0.7818608E-02  0.1745326E+00
          4   -1    0    0  501    0  0.00000000000E+00  0.00000000000E+00  0.51898311192E+01  0.53805898418E+01  0.14200000000E+01 0. -1.
         -4   -1    0    0    0  501 -0.00000000000E+00 -0.00000000000E+00 -0.18702761802E+02  0.18756590815E+02  0.14200000000E+01 0.  1.
       1023    2    1    2    0    0  0.00000000000E+00  0.00000000000E+00 -0.13512930682E+02  0.24137180657E+02  0.20000104861E+02 0.  0.
        -11    1    3    3    0    0 -0.46775859371E+01  0.88385999364E+01 -0.67326529012E+01  0.12055259200E+02  0.51100000000E-03 0.  1.
         11    1    3    3    0    0  0.46775859371E+01 -0.88385999364E+01 -0.67802777811E+01  0.12081921457E+02  0.51100000000E-03 0. -1.
<mgrwt>
<rscale>  0 0.20000105E+02</rscale>
<asrwt>0</asrwt>
<pdfrwt beam="1">  1        4 0.81725001E-03 0.20000105E+02</pdfrwt>
<pdfrwt beam="2">  1       -4 0.28961624E-02 0.20000105E+02</pdfrwt>
<totfact> 0.12773892E+06</totfact>
</mgrwt>
</event>
<event>
 4    1  0.1154861E-006  0.2027826E+02  0.7818608E-02  0.1739850E+00
         -4   -1    0    0    0  501 -0.00000000000E+00  0.00000000000E+00  0.61610221391E+02  0.61626583386E+02  0.14200000000E+01 0. -1.
          4   -1    0    0  501    0  0.00000000000E+00 -0.00000000000E+00 -0.13468100294E+01  0.19571145228E+01  0.14200000000E+01 0.  1.
        -11    1    1    2    0    0 -0.50172553676E+01  0.88099570508E+01  0.30499753981E+02  0.32140678086E+02  0.51100000000E-03 0.  1.
         11    1    1    2    0    0  0.50172553676E+01 -0.88099570508E+01  0.29763657380E+02  0.31443019822E+02  0.51100000000E-03 0. -1.
<mgrwt>
<rscale>  0 0.20278262E+02</rscale>
<asrwt>0</asrwt>
<pdfrwt beam="2">  1        4 0.25540669E-03 0.20278262E+02</pdfrwt>
<pdfrwt beam="1">  1       -4 0.95266994E-02 0.20278262E+02</pdfrwt>
<totfact> 0.10681771E+06</totfact>
</mgrwt>
</event>
<event>
 4    1  0.3909947E-006  0.2047890E+02  0.7818608E-02  0.1735969E+00
          4   -1    0    0  501    0  0.00000000000E+00  0.00000000000E+00  0.13745735739E+01  0.19763229772E+01  0.14200000000E+01 0.  1.
         -4   -1    0    0    0  501 -0.00000000000E+00 -0.00000000000E+00 -0.61966715657E+02  0.61982983546E+02  0.14200000000E+01 0. -1.
        -11    1    1    2    0    0 -0.75231636748E+01  0.66611076400E+01 -0.36446403448E+02  0.37806198846E+02  0.51100000000E-03 0. -1.
         11    1    1    2    0    0  0.75231636748E+01 -0.66611076400E+01 -0.24145738635E+02  0.26153107677E+02  0.51100000000E-03 0.  1.
<mgrwt>
<rscale>  0 0.20478897E+02</rscale>
<asrwt>0</asrwt>
<pdfrwt beam="1">  1        4 0.25901270E-03 0.20478897E+02</pdfrwt>
<pdfrwt beam="2">  1       -4 0.95808789E-02 0.20478897E+02</pdfrwt>
<totfact> 0.10457180E+06</totfact>
</mgrwt>
</event>
<event>
 5    1  0.1154861E-006  0.2000017E+02  0.7818608E-02  0.1745325E+00
          4   -1    0    0  501    0  0.00000000000E+00  0.00000000000E+00  0.67148882045E+02  0.67163894764E+02  0.14200000000E+01 0. -1.
         -4   -1    0    0    0  501 -0.00000000000E+00 -0.00000000000E+00 -0.11320489649E+01  0.18160217121E+01  0.14200000000E+01 0.  1.
       1023    2    1    2    0    0  0.00000000000E+00  0.00000000000E+00  0.66016833080E+02  0.68979916476E+02  0.20000165678E+02 0.  0.
        -11    1    3    3    0    0  0.97278740374E+01 -0.23170000284E+01  0.33147837758E+02  0.34623390515E+02  0.51100000000E-03 0.  1.
         11    1    3    3    0    0 -0.97278740374E+01  0.23170000284E+01  0.32868995321E+02  0.34356525961E+02  0.51100000000E-03 0. -1.
<mgrwt>
<rscale>  0 0.20000166E+02</rscale>
<asrwt>0</asrwt>
<pdfrwt beam="1">  1        4 0.10384366E-01 0.20000166E+02</pdfrwt>
<pdfrwt beam="2">  1       -4 0.22792948E-03 0.20000166E+02</pdfrwt>
<totfact> 0.10786781E+06</totfact>
</mgrwt>
</event>
<event>
 5    1  0.1154861E-006  0.2000856E+02  0.7818608E-02  0.1745158E+00
          4   -1    0    0  501    0  0.00000000000E+00  0.00000000000E+00  0.10741396208E+03  0.10742334779E+03  0.14200000000E+01 0. -1.
         -4   -1    0    0    0  501 -0.00000000000E+00 -0.00000000000E+00 -0.37577097778E+00  0.14688784251E+01  0.14200000000E+01 0.  1.
       1023    2    1    2    0    0  0.00000000000E+00  0.00000000000E+00  0.10703819110E+03  0.10889222621E+03  0.20008562541E+02 0.  0.
        -11    1    3    3    0    0 -0.99988348154E+01  0.23202644088E+00  0.52241497057E+02  0.53190267427E+02  0.51100000000E-03 0.  1.
         11    1    3    3    0    0  0.99988348154E+01 -0.23202644088E+00  0.54796694045E+02  0.55701958785E+02  0.51100000000E-03 0. -1.
<mgrwt>
<rscale>  0 0.20008563E+02</rscale>
<asrwt>0</asrwt>
<pdfrwt beam="1">  1        4 0.16610021E-01 0.20008563E+02</pdfrwt>
<pdfrwt beam="2">  1       -4 0.14261818E-03 0.20008563E+02</pdfrwt>
<totfact> 0.95468888E+05</totfact>
</mgrwt>
</event>
<event>
 5    1  0.1154861E-006  0.2000218E+02  0.7818608E-02  0.1745285E+00
          4   -1    0    0  501    0  0.00000000000E+00  0.00000000000E+00  0.74846025469E+00  0.16051768603E+01  0.14200000000E+01 0. -1.
         -4   -1    0    0    0  501 -0.00000000000E+00 -0.00000000000E+00 -0.84128526864E+02  0.84140510055E+02  0.14200000000E+01 0.  1.
       1023    2    1    2    0    0  0.00000000000E+00  0.00000000000E+00 -0.83380066609E+02  0.85745686915E+02  0.20002182801E+02 0.  0.
        -11    1    3    3    0    0 -0.96853994335E+01 -0.24909194944E+01 -0.42122700835E+02  0.43293574211E+02  0.51100000000E-03 0. -1.
         11    1    3    3    0    0  0.96853994335E+01  0.24909194944E+01 -0.41257365774E+02  0.42452112704E+02  0.51100000000E-03 0.  1.
<mgrwt>
<rscale>  0 0.20002183E+02</rscale>
<asrwt>0</asrwt>
<pdfrwt beam="1">  1        4 0.18197086E-03 0.20002183E+02</pdfrwt>
<pdfrwt beam="2">  1       -4 0.13009669E-01 0.20002183E+02</pdfrwt>
<totfact> 0.10225008E+06</totfact>
</mgrwt>
</event>
<event>
 5    1  0.1154861E-006  0.2000026E+02  0.7818608E-02  0.1745323E+00
         -4   -1    0    0    0  501 -0.00000000000E+00  0.00000000000E+00  0.19134012947E+02  0.19186632103E+02  0.14200000000E+01 0. -1.
          4   -1    0    0  501    0  0.00000000000E+00 -0.00000000000E+00 -0.50689281096E+01  0.52640699254E+01  0.14200000000E+01 0.  1.
       1023    2    1    2    0    0  0.00000000000E+00  0.00000000000E+00  0.14065084837E+02  0.24450702028E+02  0.20000255453E+02 0.  0.
        -11    1    3    3    0    0 -0.30038886109E+01  0.95382458777E+01  0.69924952827E+01  0.12202314196E+02  0.51100000000E-03 0. -1.
         11    1    3    3    0    0  0.30038886109E+01 -0.95382458777E+01  0.70725895546E+01  0.12248387832E+02  0.51100000000E-03 0.  1.
<mgrwt>
<rscale>  0 0.20000255E+02</rscale>
<asrwt>0</asrwt>
<pdfrwt beam="2">  1        4 0.79889361E-03 0.20000255E+02</pdfrwt>
<pdfrwt beam="1">  1       -4 0.29627529E-02 0.20000255E+02</pdfrwt>
<totfact> 0.12756040E+06</totfact>
</mgrwt>
</event>
<event>
 5    1  0.1154861E-006  0.2000515E+02  0.7818608E-02  0.1745226E+00
          4   -1    0    0  501    0  0.00000000000E+00  0.00000000000E+00  0.16670900793E+01  0.21898834061E+01  0.14200000000E+01 0.  1.
         -4   -1    0    0    0  501 -0.00000000000E+00 -0.00000000000E+00 -0.51346890343E+02  0.51366521665E+02  0.14200000000E+01 0. -1.
       1023    2    1    2    0    0  0.00000000000E+00  0.00000000000E+00 -0.49679800264E+02  0.53556405071E+02  0.20005148583E+02 0.  0.
        -11    1    3    3    0    0  0.21924309819E+01 -0.97587179258E+01 -0.24544649688E+02  0.26504323379E+02  0.51100000000E-03 0.  1.
         11    1    3    3    0    0 -0.21924309819E+01  0.97587179258E+01 -0.25135150575E+02  0.27052081692E+02  0.51100000000E-03 0. -1.
<mgrwt>
<rscale>  0 0.20005149E+02</rscale>
<asrwt>0</asrwt>
<pdfrwt beam="1">  1        4 0.29820041E-03 0.20005149E+02</pdfrwt>
<pdfrwt beam="2">  1       -4 0.79412455E-02 0.20005149E+02</pdfrwt>
<totfact> 0.11367293E+06</totfact>
</mgrwt>
</event>
<event>
 5    1  0.1154861E-006  0.2000694E+02  0.7818608E-02  0.1745190E+00
          4   -1    0    0  501    0  0.00000000000E+00  0.00000000000E+00  0.39177226693E+01  0.41671274175E+01  0.14200000000E+01 0. -1.
         -4   -1    0    0    0  501 -0.00000000000E+00 -0.00000000000E+00 -0.24484185560E+02  0.24525328592E+02  0.14200000000E+01 0.  1.
       1023    2    1    2    0    0  0.00000000000E+00  0.00000000000E+00 -0.20566462891E+02  0.28692456009E+02  0.20006939696E+02 0.  0.
        -11    1    3    3    0    0 -0.61659077752E+01  0.78761035781E+01 -0.10090917044E+02  0.14208378982E+02  0.51100000000E-03 0.  1.
         11    1    3    3    0    0  0.61659077752E+01 -0.78761035781E+01 -0.10475545847E+02  0.14484077027E+02  0.51100000000E-03 0. -1.
<mgrwt>
<rscale>  0 0.20006940E+02</rscale>
<asrwt>0</asrwt>
<pdfrwt beam="1">  1        4 0.62507641E-03 0.20006940E+02</pdfrwt>
<pdfrwt beam="2">  1       -4 0.37891475E-02 0.20006940E+02</pdfrwt>
<totfact> 0.12515775E+06</totfact>
</mgrwt>
</event>
<event>
 5    1  0.1154861E-006  0.2000006E+02  0.7818608E-02  0.1745327E+00
          4   -1    0    0  501    0  0.00000000000E+00  0.00000000000E+00  0.13149178212E+01  0.19353058871E+01  0.14200000000E+01 0. -1.
         -4   -1    0    0    0  501 -0.00000000000E+00 -0.00000000000E+00 -0.60904323656E+02  0.60920875240E+02  0.14200000000E+01 0.  1.
       1023    2    1    2    0    0  0.00000000000E+00  0.00000000000E+00 -0.59589405834E+02  0.62856181127E+02  0.20000055453E+02 0.  0.
        -11    1    3    3    0    0 -0.23582211301E+01  0.97179894339E+01 -0.29811549623E+02  0.31444061708E+02  0.51100000000E-03 0.  1.
         11    1    3    3    0    0  0.23582211301E+01 -0.97179894339E+01 -0.29777856211E+02  0.31412119418E+02  0.51100000000E-03 0. -1.
<mgrwt>
<rscale>  0 0.20000055E+02</rscale>
<asrwt>0</asrwt>
<pdfrwt beam="1">  1        4 0.25129045E-03 0.20000055E+02</pdfrwt>
<pdfrwt beam="2">  1       -4 0.94188895E-02 0.20000055E+02</pdfrwt>
<totfact> 0.11010481E+06</totfact>
</mgrwt>
</event>
<event>
 5    1  0.1154861E-006  0.2000015E+02  0.7818608E-02  0.1745325E+00
         -4   -1    0    0    0  501 -0.00000000000E+00  0.00000000000E+00  0.85971951139E+02  0.85983677420E+02  0.14200000000E+01 0. -1.
          4   -1    0    0  501    0  0.00000000000E+00 -0.00000000000E+00 -0.71351908236E+00  0.15891851626E+01  0.14200000000E+01 0.  1.
       1023    2    1    2    0    0  0.00000000000E+00  0.00000000000E+00  0.85258432057E+02  0.87572862582E+02  0.20000150603E+02 0.  0.
        -11    1    3    3    0    0  0.15502476746E+01  0.98791458898E+01  0.42746249177E+02  0.43900371415E+02  0.51100000000E-03 0. -1.
         11    1    3    3    0    0 -0.15502476746E+01 -0.98791458898E+01  0.42512182879E+02  0.43672491167E+02  0.51100000000E-03 0.  1.
<mgrwt>
<rscale>  0 0.20000151E+02</rscale>
<asrwt>0</asrwt>
<pdfrwt beam="2">  1        4 0.17803313E-03 0.20000151E+02</pdfrwt>
<pdfrwt beam="1">  1       -4 0.13294714E-01 0.20000151E+02</pdfrwt>
<totfact> 0.10170111E+06</totfact>
</mgrwt>
</event>
<event>
 4    1  0.3436911E-006  0.2038874E+02  0.7818608E-02  0.1737706E+00
         -4   -1    0    0    0  501 -0.00000000000E+00  0.00000000000E+00  0.27616672269E+01  0.31053511673E+01  0.14200000000E+01 0. -1.
          4   -1    0    0  501    0  0.00000000000E+00 -0.00000000000E+00 -0.35068033937E+02  0.35096771991E+02  0.14200000000E+01 0.  1.
        -11    1    1    2    0    0 -0.10008421795E+02  0.46842263010E+00 -0.12629210036E+02  0.16120945164E+02  0.51100000000E-03 0. -1.
         11    1    1    2    0    0  0.10008421795E+02 -0.46842263010E+00 -0.19677156674E+02  0.22081177994E+02  0.51100000000E-03 0.  1.
<mgrwt>
<rscale>  0 0.20388744E+02</rscale>
<asrwt>0</asrwt>
<pdfrwt beam="2">  1        4 0.54237297E-02 0.20388744E+02</pdfrwt>
<pdfrwt beam="1">  1       -4 0.45351975E-03 0.20388744E+02</pdfrwt>
<totfact> 0.11584368E+06</totfact>
</mgrwt>
</event>
<event>
 5    1  0.1157487E-006  0.2000053E+02  0.7818608E-02  0.1745318E+00
         -4   -1    0    0    0  501 -0.00000000000E+00  0.00000000000E+00  0.21098897398E+02  0.21146627897E+02  0.14200000000E+01 0.  1.
          4   -1    0    0  501    0  0.00000000000E+00 -0.00000000000E+00 -0.45790645200E+01  0.47941873012E+01  0.14200000000E+01 0. -1.
       1023    2    1    2    0    0  0.00000000000E+00  0.00000000000E+00  0.16519832878E+02  0.25940815198E+02  0.20000525364E+02 0.  0.
        -11    1    3    3    0    0  0.98669230612E+01  0.16275321344E+01  0.82405958184E+01  0.12958103690E+02  0.51100000000E-03 0.  1.
         11    1    3    3    0    0 -0.98669230612E+01 -0.16275321344E+01  0.82792370593E+01  0.12982711508E+02  0.51100000000E-03 0. -1.
<mgrwt>
<rscale>  0 0.20000525E+02</rscale>
<asrwt>0</asrwt>
<pdfrwt beam="2">  1        4 0.72469094E-03 0.20000525E+02</pdfrwt>
<pdfrwt beam="1">  1       -4 0.32662037E-02 0.20000525E+02</pdfrwt>
<totfact> 0.12672750E+06</totfact>
</mgrwt>
</event>
<event>
 5    1  0.1154861E-006  0.2000039E+02  0.7818608E-02  0.1745320E+00
         -4   -1    0    0    0  501 -0.00000000000E+00  0.00000000000E+00  0.11163660260E+02  0.11253608773E+02  0.14200000000E+01 0. -1.
          4   -1    0    0  501    0  0.00000000000E+00 -0.00000000000E+00 -0.87747889168E+01  0.88889437244E+01  0.14200000000E+01 0.  1.
       1023    2    1    2    0    0  0.00000000000E+00  0.00000000000E+00  0.23888713435E+01  0.20142552497E+02  0.20000392866E+02 0.  0.
        -11    1    3    3    0    0  0.98531860951E+01  0.17074191003E+01  0.12529193401E+01  0.10078212309E+02  0.51100000000E-03 0. -1.
         11    1    3    3    0    0 -0.98531860951E+01 -0.17074191003E+01  0.11359520034E+01  0.10064340188E+02  0.51100000000E-03 0.  1.
<mgrwt>
<rscale>  0 0.20000393E+02</rscale>
<asrwt>0</asrwt>
<pdfrwt beam="2">  1        4 0.13656678E-02 0.20000393E+02</pdfrwt>
<pdfrwt beam="1">  1       -4 0.17331864E-02 0.20000393E+02</pdfrwt>
<totfact> 0.13005051E+06</totfact>
</mgrwt>
</event>
<event>
 5    1  0.1154861E-006  0.2000019E+02  0.7818608E-02  0.1745324E+00
         -4   -1    0    0    0  501 -0.00000000000E+00  0.00000000000E+00  0.19562885512E+02  0.19614354171E+02  0.14200000000E+01 0.  1.
          4   -1    0    0  501    0  0.00000000000E+00 -0.00000000000E+00 -0.49537521344E+01  0.51532572427E+01  0.14200000000E+01 0. -1.
       1023    2    1    2    0    0  0.00000000000E+00  0.00000000000E+00  0.14609133378E+02  0.24767611414E+02  0.20000194927E+02 0.  0.
        -11    1    3    3    0    0  0.83992324955E+01 -0.54270758588E+01  0.72536559432E+01  0.12353776090E+02  0.51100000000E-03 0.  1.
         11    1    3    3    0    0 -0.83992324955E+01  0.54270758588E+01  0.73554774346E+01  0.12413835324E+02  0.51100000000E-03 0. -1.
<mgrwt>
<rscale>  0 0.20000195E+02</rscale>
<asrwt>0</asrwt>
<pdfrwt beam="2">  1        4 0.78142138E-03 0.20000195E+02</pdfrwt>
<pdfrwt beam="1">  1       -4 0.30289804E-02 0.20000195E+02</pdfrwt>
<totfact> 0.12738335E+06</totfact>
</mgrwt>
</event>
<event>
 5    1  0.1154861E-006  0.2000021E+02  0.7818608E-02  0.1745324E+00
         -4   -1    0    0    0  501 -0.00000000000E+00  0.00000000000E+00  0.61983458555E+01  0.63589221841E+01  0.14200000000E+01 0.  1.
          4   -1    0    0  501    0  0.00000000000E+00 -0.00000000000E+00 -0.15734407647E+02  0.15798353838E+02  0.14200000000E+01 0. -1.
       1023    2    1    2    0    0  0.00000000000E+00  0.00000000000E+00 -0.95360617911E+01  0.22157276022E+02  0.20000210155E+02 0.  0.
        -11    1    3    3    0    0  0.85675118275E+01  0.51573659475E+01 -0.48097613183E+01  0.11096597976E+02  0.51100000000E-03 0.  1.
         11    1    3    3    0    0 -0.85675118275E+01 -0.51573659475E+01 -0.47263004728E+01  0.11060678047E+02  0.51100000000E-03 0. -1.
<mgrwt>
<rscale>  0 0.20000210E+02</rscale>
<asrwt>0</asrwt>
<pdfrwt beam="2">  1        4 0.24379491E-02 0.20000210E+02</pdfrwt>
<pdfrwt beam="1">  1       -4 0.97086263E-03 0.20000210E+02</pdfrwt>
<totfact> 0.12886829E+06</totfact>
</mgrwt>
</event>
<event>
 5    1  0.1158403E-006  0.2000110E+02  0.7818608E-02  0.1745306E+00
          4   -1    0    0  501    0  0.00000000000E+00  0.00000000000E+00  0.12166641651E+01  0.18699389537E+01  0.14200000000E+01 0.  1.
         -4   -1    0    0    0  501 -0.00000000000E+00 -0.00000000000E+00 -0.64140511537E+02  0.64156228227E+02  0.14200000000E+01 0. -1.
       1023    2    1    2    0    0  0.00000000000E+00  0.00000000000E+00 -0.62923847372E+02  0.66026167180E+02  0.20001104580E+02 0.  0.
        -11    1    3    3    0    0  0.60736288556E+01  0.79443926075E+01 -0.31769911171E+02  0.33306599909E+02  0.51100000000E-03 0.  1.
         11    1    3    3    0    0 -0.60736288556E+01 -0.79443926075E+01 -0.31153936201E+02  0.32719567272E+02  0.51100000000E-03 0. -1.
<mgrwt>
<rscale>  0 0.20001105E+02</rscale>
<asrwt>0</asrwt>
<pdfrwt beam="1">  1        4 0.23864004E-03 0.20001105E+02</pdfrwt>
<pdfrwt beam="2">  1       -4 0.99192298E-02 0.20001105E+02</pdfrwt>
<totfact> 0.10892173E+06</totfact>
</mgrwt>
</event>
<event>
 5    1  0.1154861E-006  0.2000183E+02  0.7818608E-02  0.1745292E+00
          4   -1    0    0  501    0  0.00000000000E+00  0.00000000000E+00  0.13187318651E+02  0.13263550551E+02  0.14200000000E+01 0. -1.
         -4   -1    0    0    0  501 -0.00000000000E+00 -0.00000000000E+00 -0.74188068472E+01  0.75534823119E+01  0.14200000000E+01 0.  1.
       1023    2    1    2    0    0  0.00000000000E+00  0.00000000000E+00  0.57685118042E+01  0.20817032863E+02  0.20001828136E+02 0.  0.
        -11    1    3    3    0    0 -0.83284410120E+01  0.55365317123E+01  0.29327247735E+01  0.10421947416E+02  0.51100000000E-03 0. -1.
         11    1    3    3    0    0  0.83284410120E+01 -0.55365317123E+01  0.28357870307E+01  0.10395085446E+02  0.51100000000E-03 0.  1.
<mgrwt>
<rscale>  0 0.20001828E+02</rscale>
<asrwt>0</asrwt>
<pdfrwt beam="1">  1        4 0.20450419E-02 0.20001828E+02</pdfrwt>
<pdfrwt beam="2">  1       -4 0.11575786E-02 0.20001828E+02</pdfrwt>
<totfact> 0.12963150E+06</totfact>
</mgrwt>
</event>
<event>
 5    1  0.1167377E-006  0.2000165E+02  0.7818608E-02  0.1745295E+00
         -4   -1    0    0    0  501 -0.00000000000E+00  0.00000000000E+00  0.26938236600E+02  0.26975636992E+02  0.14200000000E+01 0. -1.
          4   -1    0    0  501    0  0.00000000000E+00 -0.00000000000E+00 -0.35354811225E+01  0.38099903894E+01  0.14200000000E+01 0.  1.
       1023    2    1    2    0    0  0.00000000000E+00  0.00000000000E+00  0.23402755477E+02  0.30785627381E+02  0.20001647165E+02 0.  0.
        -11    1    3    3    0    0 -0.79733849136E+01  0.60358014542E+01  0.11542122506E+02  0.15271750338E+02  0.51100000000E-03 0.  1.
         11    1    3    3    0    0  0.79733849136E+01 -0.60358014542E+01  0.11860632972E+02  0.15513877044E+02  0.51100000000E-03 0. -1.
<mgrwt>
<rscale>  0 0.20001647E+02</rscale>
<asrwt>0</asrwt>
<pdfrwt beam="2">  1        4 0.56791323E-03 0.20001647E+02</pdfrwt>
<pdfrwt beam="1">  1       -4 0.41683371E-02 0.20001647E+02</pdfrwt>
<totfact> 0.12412831E+06</totfact>
</mgrwt>
</event>
<event>
 5    1  0.1154861E-006  0.2000160E+02  0.7818608E-02  0.1745296E+00
          4   -1    0    0  501    0  0.00000000000E+00  0.00000000000E+00  0.11313208290E+03  0.11314099425E+03  0.14200000000E+01 0.  1.
         -4   -1    0    0    0  501 -0.00000000000E+00 -0.00000000000E+00 -0.29904344511E+00  0.14511467817E+01  0.14200000000E+01 0. -1.
       1023    2    1    2    0    0  0.00000000000E+00  0.00000000000E+00  0.11283303945E+03  0.11459214104E+03  0.20001599812E+02 0.  0.
        -11    1    3    3    0    0  0.41396366200E+01 -0.91036967185E+01  0.56679886657E+02  0.57555394509E+02  0.51100000000E-03 0. -1.
         11    1    3    3    0    0 -0.41396366200E+01  0.91036967185E+01  0.56153152795E+02  0.57036746527E+02  0.51100000000E-03 0.  1.
<mgrwt>
<rscale>  0 0.20001600E+02</rscale>
<asrwt>0</asrwt>
<pdfrwt beam="1">  1        4 0.17494240E-01 0.20001600E+02</pdfrwt>
<pdfrwt beam="2">  1       -4 0.13531554E-03 0.20001600E+02</pdfrwt>
<totfact> 0.94026968E+05</totfact>
</mgrwt>
</event>
<event>
 5    1  0.1154861E-006  0.2000208E+02  0.7818608E-02  0.1745287E+00
          4   -1    0    0  501    0  0.00000000000E+00  0.00000000000E+00  0.78962515851E+00  0.16247793361E+01  0.14200000000E+01 0.  1.
         -4   -1    0    0    0  501 -0.00000000000E+00 -0.00000000000E+00 -0.82009928377E+02  0.82022221089E+02  0.14200000000E+01 0. -1.
       1023    2    1    2    0    0  0.00000000000E+00  0.00000000000E+00 -0.81220303218E+02  0.83647000425E+02  0.20002075523E+02 0.  0.
        -11    1    3    3    0    0  0.87340974581E+01  0.48713941914E+01 -0.40291219933E+02  0.41513821117E+02  0.51100000000E-03 0. -1.
         11    1    3    3    0    0 -0.87340974581E+01 -0.48713941914E+01 -0.40929083285E+02  0.42133179308E+02  0.51100000000E-03 0.  1.
<mgrwt>
<rscale>  0 0.20002076E+02</rscale>
<asrwt>0</asrwt>
<pdfrwt beam="1">  1        4 0.18666908E-03 0.20002076E+02</pdfrwt>
<pdfrwt beam="2">  1       -4 0.12682096E-01 0.20002076E+02</pdfrwt>
<totfact> 0.10291409E+06</totfact>
</mgrwt>
</event>
<event>
 5    1  0.1184351E-006  0.2000342E+02  0.7818608E-02  0.1745260E+00
          4   -1    0    0  501    0  0.00000000000E+00  0.00000000000E+00  0.11044808863E+02  0.11135717436E+02  0.14200000000E+01 0.  1.
         -4   -1    0    0    0  501 -0.00000000000E+00 -0.00000000000E+00 -0.88724030003E+01  0.89853177462E+01  0.14200000000E+01 0. -1.
       1023    2    1    2    0    0  0.00000000000E+00  0.00000000000E+00  0.21724058626E+01  0.20121035182E+02  0.20003417448E+02 0.  0.
        -11    1    3    3    0    0  0.78612147434E+01  0.61807371518E+01  0.90081473200E+00  0.10040501801E+02  0.51100000000E-03 0. -1.
         11    1    3    3    0    0 -0.78612147434E+01 -0.61807371518E+01  0.12715911306E+01  0.10080533381E+02  0.51100000000E-03 0.  1.
<mgrwt>
<rscale>  0 0.20003417E+02</rscale>
<asrwt>0</asrwt>
<pdfrwt beam="1">  1        4 0.17148801E-02 0.20003417E+02</pdfrwt>
<pdfrwt beam="2">  1       -4 0.13806638E-02 0.20003417E+02</pdfrwt>
<totfact> 0.13002324E+06</totfact>
</mgrwt>
</event>
<event>
 5    1  0.1154861E-006  0.2000164E+02  0.7818608E-02  0.1745295E+00
         -4   -1    0    0    0  501 -0.00000000000E+00  0.00000000000E+00  0.17050837233E+01  0.22189435557E+01  0.14200000000E+01 0.  1.
          4   -1    0    0  501    0  0.00000000000E+00 -0.00000000000E+00 -0.50451241398E+02  0.50471221093E+02  0.14200000000E+01 0. -1.
       1023    2    1    2    0    0  0.00000000000E+00  0.00000000000E+00 -0.48746157675E+02  0.52690164649E+02  0.20001638999E+02 0.  0.
        -11    1    3    3    0    0  0.99475743224E+01 -0.10304142747E+01 -0.24320266569E+02  0.26296223202E+02  0.51100000000E-03 0. -1.
         11    1    3    3    0    0 -0.99475743224E+01  0.10304142747E+01 -0.24425891106E+02  0.26393941446E+02  0.51100000000E-03 0.  1.
<mgrwt>
<rscale>  0 0.20001639E+02</rscale>
<asrwt>0</asrwt>
<pdfrwt beam="2">  1        4 0.78027930E-02 0.20001639E+02</pdfrwt>
<pdfrwt beam="1">  1       -4 0.30338519E-03 0.20001639E+02</pdfrwt>
<totfact> 0.11406659E+06</totfact>
</mgrwt>
</event>
<event>
 5    1  0.1179196E-006  0.2000073E+02  0.7818608E-02  0.1745314E+00
          4   -1    0    0  501    0  0.00000000000E+00  0.00000000000E+00  0.21673701809E+01  0.25911181951E+01  0.14200000000E+01 0. -1.
         -4   -1    0    0    0  501 -0.00000000000E+00 -0.00000000000E+00 -0.41596269992E+02  0.41620500685E+02  0.14200000000E+01 0.  1.
       1023    2    1    2    0    0  0.00000000000E+00  0.00000000000E+00 -0.39428899811E+02  0.44211618880E+02  0.20000727578E+02 0.  0.
        -11    1    3    3    0    0 -0.39433686704E+01 -0.91900153762E+01 -0.19654457299E+02  0.22052306706E+02  0.51100000000E-03 0.  1.
         11    1    3    3    0    0  0.39433686704E+01  0.91900153762E+01 -0.19774442512E+02  0.22159312174E+02  0.51100000000E-03 0. -1.
<mgrwt>
<rscale>  0 0.20000728E+02</rscale>
<asrwt>0</asrwt>
<pdfrwt beam="1">  1        4 0.36790150E-03 0.20000728E+02</pdfrwt>
<pdfrwt beam="2">  1       -4 0.64338855E-02 0.20000728E+02</pdfrwt>
<totfact> 0.11769945E+06</totfact>
</mgrwt>
</event>
<event>
 5    1  0.1154861E-006  0.2000067E+02  0.7818608E-02  0.1745315E+00
          4   -1    0    0  501    0  0.00000000000E+00  0.00000000000E+00  0.93538870990E+02  0.93549648776E+02  0.14200000000E+01 0.  1.
         -4   -1    0    0    0  501 -0.00000000000E+00 -0.00000000000E+00 -0.58193935614E+00  0.15346183285E+01  0.14200000000E+01 0. -1.
       1023    2    1    2    0    0  0.00000000000E+00  0.00000000000E+00  0.92956931634E+02  0.95084267104E+02  0.20000667789E+02 0.  0.
        -11    1    3    3    0    0  0.86020169272E+01 -0.50997925645E+01  0.46174120150E+02  0.47244597059E+02  0.51100000000E-03 0. -1.
         11    1    3    3    0    0 -0.86020169272E+01  0.50997925645E+01  0.46782811484E+02  0.47839670046E+02  0.51100000000E-03 0.  1.
<mgrwt>
<rscale>  0 0.20000668E+02</rscale>
<asrwt>0</asrwt>
<pdfrwt beam="1">  1        4 0.14464708E-01 0.20000668E+02</pdfrwt>
<pdfrwt beam="2">  1       -4 0.16364118E-03 0.20000668E+02</pdfrwt>
<totfact> 0.99428558E+05</totfact>
</mgrwt>
</event>
<event>
 5    1  0.1154861E-006  0.2000046E+02  0.7818608E-02  0.1745319E+00
          4   -1    0    0  501    0  0.00000000000E+00  0.00000000000E+00  0.32045292339E+01  0.35050545803E+01  0.14200000000E+01 0. -1.
         -4   -1    0    0    0  501 -0.00000000000E+00 -0.00000000000E+00 -0.29491107033E+02  0.29525273818E+02  0.14200000000E+01 0.  1.
       1023    2    1    2    0    0  0.00000000000E+00  0.00000000000E+00 -0.26286577799E+02  0.33030328399E+02  0.20000460538E+02 0.  0.
        -11    1    3    3    0    0  0.99446643403E+01 -0.10526246197E+01 -0.13117825183E+02  0.16494899370E+02  0.51100000000E-03 0.  1.
         11    1    3    3    0    0 -0.99446643403E+01  0.10526246197E+01 -0.13168752617E+02  0.16535429029E+02  0.51100000000E-03 0. -1.
<mgrwt>
<rscale>  0 0.20000461E+02</rscale>
<asrwt>0</asrwt>
<pdfrwt beam="1">  1        4 0.51875007E-03 0.20000461E+02</pdfrwt>
<pdfrwt beam="2">  1       -4 0.45628388E-02 0.20000461E+02</pdfrwt>
<totfact> 0.12299596E+06</totfact>
</mgrwt>
</event>
<event>
 5    1  0.1154861E-006  0.2000172E+02  0.7818608E-02  0.1745294E+00
          4   -1    0    0  501    0  0.00000000000E+00  0.00000000000E+00  0.52577815009E+00  0.15142135461E+01  0.14200000000E+01 0. -1.
         -4   -1    0    0    0  501 -0.00000000000E+00 -0.00000000000E+00 -0.97060380308E+02  0.97070767101E+02  0.14200000000E+01 0.  1.
       1023    2    1    2    0    0  0.00000000000E+00  0.00000000000E+00 -0.96534602158E+02  0.98584980647E+02  0.20001724809E+02 0.  0.
        -11    1    3    3    0    0  0.90779491830E+01  0.41961813854E+01 -0.48207139167E+02  0.49233579664E+02  0.51100000000E-03 0.  1.
         11    1    3    3    0    0 -0.90779491830E+01 -0.41961813854E+01 -0.48327462991E+02  0.49351400983E+02  0.51100000000E-03 0. -1.
<mgrwt>
<rscale>  0 0.20001725E+02</rscale>
<asrwt>0</asrwt>
<pdfrwt beam="1">  1        4 0.15772150E-03 0.20001725E+02</pdfrwt>
<pdfrwt beam="2">  1       -4 0.15009191E-01 0.20001725E+02</pdfrwt>
<totfact> 0.98400365E+05</totfact>
</mgrwt>
</event>
<event>
 5    1  0.1154861E-006  0.2000204E+02  0.7818608E-02  0.1745288E+00
          4   -1    0    0  501    0  0.00000000000E+00  0.00000000000E+00  0.35031694285E+01  0.37800259317E+01  0.14200000000E+01 0. -1.
         -4   -1    0    0    0  501 -0.00000000000E+00 -0.00000000000E+00 -0.27169963545E+02  0.27207045394E+02  0.14200000000E+01 0.  1.
       1023    2    1    2    0    0  0.00000000000E+00  0.00000000000E+00 -0.23666794117E+02  0.30987071325E+02  0.20002036035E+02 0.  0.
        -11    1    3    3    0    0 -0.94534188570E+01  0.32628424325E+01 -0.11963863846E+02  0.15593181433E+02  0.51100000000E-03 0. -1.
         11    1    3    3    0    0  0.94534188570E+01 -0.32628424325E+01 -0.11702930271E+02  0.15393889892E+02  0.51100000000E-03 0.  1.
<mgrwt>
<rscale>  0 0.20002036E+02</rscale>
<asrwt>0</asrwt>
<pdfrwt beam="1">  1        4 0.56309826E-03 0.20002036E+02</pdfrwt>
<pdfrwt beam="2">  1       -4 0.42041434E-02 0.20002036E+02</pdfrwt>
<totfact> 0.12401938E+06</totfact>
</mgrwt>
</event>
<event>
 5    1  0.1155732E-006  0.2000070E+02  0.7818608E-02  0.1745314E+00
         -4   -1    0    0    0  501 -0.00000000000E+00  0.00000000000E+00  0.15572908060E+02  0.15637514683E+02  0.14200000000E+01 0. -1.
          4   -1    0    0  501    0  0.00000000000E+00 -0.00000000000E+00 -0.62643277075E+01  0.64232547533E+01  0.14200000000E+01 0.  1.
       1023    2    1    2    0    0  0.00000000000E+00  0.00000000000E+00  0.93085803529E+01  0.22060769436E+02  0.20000696986E+02 0.  0.
        -11    1    3    3    0    0  0.41617936923E+01  0.90931705920E+01  0.46252838199E+01  0.11018145435E+02  0.51100000000E-03 0. -1.
         11    1    3    3    0    0 -0.41617936923E+01 -0.90931705920E+01  0.46832965329E+01  0.11042624001E+02  0.51100000000E-03 0.  1.
<mgrwt>
<rscale>  0 0.20000697E+02</rscale>
<asrwt>0</asrwt>
<pdfrwt beam="2">  1        4 0.98093764E-03 0.20000697E+02</pdfrwt>
<pdfrwt beam="1">  1       -4 0.24130269E-02 0.20000697E+02</pdfrwt>
<totfact> 0.12891781E+06</totfact>
</mgrwt>
</event>
<event>
 4    1  0.1154861E-006  0.2003336E+02  0.7818608E-02  0.1744665E+00
          4   -1    0    0  501    0  0.00000000000E+00  0.00000000000E+00  0.76387733848E+01  0.77696369816E+01  0.14200000000E+01 0.  1.
         -4   -1    0    0    0  501 -0.00000000000E+00 -0.00000000000E+00 -0.12852967435E+02  0.12931170553E+02  0.14200000000E+01 0. -1.
        -11    1    1    2    0    0 -0.41421319473E+01 -0.91148465167E+01 -0.29276232949E+01  0.10431139080E+02  0.51100000000E-03 0.  1.
         11    1    1    2    0    0  0.41421319473E+01  0.91148465167E+01 -0.22865707551E+01  0.10269668455E+02  0.51100000000E-03 0. -1.
<mgrwt>
<rscale>  0 0.20033362E+02</rscale>
<asrwt>0</asrwt>
<pdfrwt beam="1">  1        4 0.11912780E-02 0.20033362E+02</pdfrwt>
<pdfrwt beam="2">  1       -4 0.19934617E-02 0.20033362E+02</pdfrwt>
<totfact> 0.12928392E+06</totfact>
</mgrwt>
</event>
<event>
 5    1  0.1154861E-006  0.2000770E+02  0.7818608E-02  0.1745175E+00
         -4   -1    0    0    0  501 -0.00000000000E+00  0.00000000000E+00  0.11207829819E+02  0.11297426665E+02  0.14200000000E+01 0.  1.
          4   -1    0    0  501    0  0.00000000000E+00 -0.00000000000E+00 -0.87465727866E+01  0.88610911016E+01  0.14200000000E+01 0.  1.
       1023    2    1    2    0    0  0.00000000000E+00  0.00000000000E+00  0.24612570326E+01  0.20158517767E+02  0.20007699827E+02 0.  0.
        -11    1    3    3    0    0 -0.64723018077E+01  0.76257970959E+01  0.10461065339E+01  0.10056729646E+02  0.51100000000E-03 0.  1.
         11    1    3    3    0    0  0.64723018077E+01 -0.76257970959E+01  0.14151504988E+01  0.10101788121E+02  0.51100000000E-03 0. -1.
<mgrwt>
<rscale>  0 0.20007700E+02</rscale>
<asrwt>0</asrwt>
<pdfrwt beam="2">  1        4 0.13613277E-02 0.20007700E+02</pdfrwt>
<pdfrwt beam="1">  1       -4 0.17399827E-02 0.20007700E+02</pdfrwt>
<totfact> 0.12994405E+06</totfact>
</mgrwt>
</event>
<event>
 5    1  0.1154861E-006  0.2000201E+02  0.7818608E-02  0.1745288E+00
          4   -1    0    0  501    0  0.00000000000E+00  0.00000000000E+00  0.10580993985E+03  0.10581946783E+03  0.14200000000E+01 0.  1.
         -4   -1    0    0    0  501 -0.00000000000E+00 -0.00000000000E+00 -0.39693730940E+00  0.14744352233E+01  0.14200000000E+01 0. -1.
       1023    2    1    2    0    0  0.00000000000E+00  0.00000000000E+00  0.10541300254E+03  0.10729390305E+03  0.20002013074E+02 0.  0.
        -11    1    3    3    0    0 -0.62750529110E+01 -0.77872232266E+01  0.52412847398E+02  0.53358445510E+02  0.51100000000E-03 0. -1.
         11    1    3    3    0    0  0.62750529110E+01  0.77872232266E+01  0.53000155147E+02  0.53935457544E+02  0.51100000000E-03 0.  1.
<mgrwt>
<rscale>  0 0.20002013E+02</rscale>
<asrwt>0</asrwt>
<pdfrwt beam="1">  1        4 0.16362067E-01 0.20002013E+02</pdfrwt>
<pdfrwt beam="2">  1       -4 0.14468468E-03 0.20002013E+02</pdfrwt>
<totfact> 0.95963656E+05</totfact>
</mgrwt>
</event>
<event>
 5    1  0.1182434E-006  0.2000085E+02  0.7818608E-02  0.1745311E+00
          4   -1    0    0  501    0  0.00000000000E+00  0.00000000000E+00  0.14213394258E+02  0.14284151229E+02  0.14200000000E+01 0.  1.
         -4   -1    0    0    0  501 -0.00000000000E+00 -0.00000000000E+00 -0.68752527950E+01  0.70203633094E+01  0.14200000000E+01 0. -1.
       1023    2    1    2    0    0  0.00000000000E+00  0.00000000000E+00  0.73381414634E+01  0.21304514539E+02  0.20000850472E+02 0.  0.
        -11    1    3    3    0    0  0.14883581166E+01  0.98889536315E+01  0.36227527896E+01  0.10636303486E+02  0.51100000000E-03 0. -1.
         11    1    3    3    0    0 -0.14883581166E+01 -0.98889536315E+01  0.37153886738E+01  0.10668211053E+02  0.51100000000E-03 0.  1.
<mgrwt>
<rscale>  0 0.20000850E+02</rscale>
<asrwt>0</asrwt>
<pdfrwt beam="1">  1        4 0.22032812E-02 0.20000850E+02</pdfrwt>
<pdfrwt beam="2">  1       -4 0.10743364E-02 0.20000850E+02</pdfrwt>
<totfact> 0.12935701E+06</totfact>
</mgrwt>
</event>
<event>
 5    1  0.1154861E-006  0.2000006E+02  0.7818608E-02  0.1745327E+00
          4   -1    0    0  501    0  0.00000000000E+00  0.00000000000E+00  0.76612503537E+00  0.16134892531E+01  0.14200000000E+01 0. -1.
         -4   -1    0    0    0  501 -0.00000000000E+00 -0.00000000000E+00 -0.83192122279E+02  0.83204240333E+02  0.14200000000E+01 0.  1.
       1023    2    1    2    0    0  0.00000000000E+00  0.00000000000E+00 -0.82425997244E+02  0.84817729586E+02  0.20000055761E+02 0.  0.
        -11    1    3    3    0    0  0.24608675287E+01 -0.96924845703E+01 -0.41301062374E+02  0.42494445280E+02  0.51100000000E-03 0.  1.
         11    1    3    3    0    0 -0.24608675287E+01  0.96924845703E+01 -0.41124934870E+02  0.42323284306E+02  0.51100000000E-03 0. -1.
<mgrwt>
<rscale>  0 0.20000056E+02</rscale>
<asrwt>0</asrwt>
<pdfrwt beam="1">  1        4 0.18397948E-03 0.20000056E+02</pdfrwt>
<pdfrwt beam="2">  1       -4 0.12864897E-01 0.20000056E+02</pdfrwt>
<totfact> 0.10256391E+06</totfact>
</mgrwt>
</event>
<event>
 5    1  0.1154861E-006  0.2000014E+02  0.7818608E-02  0.1745325E+00
          4   -1    0    0  501    0  0.00000000000E+00  0.00000000000E+00  0.11989933321E+01  0.18584899813E+01  0.14200000000E+01 0.  1.
         -4   -1    0    0    0  501 -0.00000000000E+00 -0.00000000000E+00 -0.64745248542E+02  0.64760818469E+02  0.14200000000E+01 0. -1.
       1023    2    1    2    0    0  0.00000000000E+00  0.00000000000E+00 -0.63546255210E+02  0.66619308450E+02  0.20000142679E+02 0.  0.
        -11    1    3    3    0    0  0.86050058523E+01 -0.50946036465E+01 -0.31832199329E+02  0.33366001055E+02  0.51100000000E-03 0. -1.
         11    1    3    3    0    0 -0.86050058523E+01  0.50946036465E+01 -0.31714055881E+02  0.33253307395E+02  0.51100000000E-03 0.  1.
<mgrwt>
<rscale>  0 0.20000143E+02</rscale>
<asrwt>0</asrwt>
<pdfrwt beam="1">  1        4 0.23638876E-03 0.20000143E+02</pdfrwt>
<pdfrwt beam="2">  1       -4 0.10012734E-01 0.20000143E+02</pdfrwt>
<totfact> 0.10871648E+06</totfact>
</mgrwt>
</event>
<event>
 5    1  0.1154861E-006  0.2000370E+02  0.7818608E-02  0.1745255E+00
          4   -1    0    0  501    0  0.00000000000E+00  0.00000000000E+00  0.67986010984E+02  0.68000838888E+02  0.14200000000E+01 0.  1.
         -4   -1    0    0    0  501 -0.00000000000E+00 -0.00000000000E+00 -0.11102832840E+01  0.18025340415E+01  0.14200000000E+01 0. -1.
       1023    2    1    2    0    0  0.00000000000E+00  0.00000000000E+00  0.66875727700E+02  0.69803372930E+02  0.20003697583E+02 0.  0.
        -11    1    3    3    0    0  0.36618245489E+01 -0.93063887434E+01  0.33920737671E+02  0.35364307923E+02  0.51100000000E-03 0. -1.
         11    1    3    3    0    0 -0.36618245489E+01  0.93063887434E+01  0.32954990030E+02  0.34439065007E+02  0.51100000000E-03 0.  1.
<mgrwt>
<rscale>  0 0.20003698E+02</rscale>
<asrwt>0</asrwt>
<pdfrwt beam="1">  1        4 0.10513778E-01 0.20003698E+02</pdfrwt>
<pdfrwt beam="2">  1       -4 0.22520347E-03 0.20003698E+02</pdfrwt>
<totfact> 0.10753757E+06</totfact>
</mgrwt>
</event>
<event>
 5    1  0.1154861E-006  0.2000024E+02  0.7818608E-02  0.1745323E+00
          4   -1    0    0  501    0  0.00000000000E+00  0.00000000000E+00  0.17742108929E+02  0.17798843481E+02  0.14200000000E+01 0.  1.
         -4   -1    0    0    0  501 -0.00000000000E+00 -0.00000000000E+00 -0.54800720405E+01  0.56610590501E+01  0.14200000000E+01 0. -1.
       1023    2    1    2    0    0  0.00000000000E+00  0.00000000000E+00  0.12262036889E+02  0.23459902531E+02  0.20000236951E+02 0.  0.
        -11    1    3    3    0    0  0.84167444781E+01  0.54000586994E+01  0.61167632235E+01  0.11722500337E+02  0.51100000000E-03 0. -1.
         11    1    3    3    0    0 -0.84167444781E+01 -0.54000586994E+01  0.61452736650E+01  0.11737402193E+02  0.51100000000E-03 0.  1.
<mgrwt>
<rscale>  0 0.20000237E+02</rscale>
<asrwt>0</asrwt>
<pdfrwt beam="1">  1        4 0.27478415E-02 0.20000237E+02</pdfrwt>
<pdfrwt beam="2">  1       -4 0.86137428E-03 0.20000237E+02</pdfrwt>
<totfact> 0.12812035E+06</totfact>
</mgrwt>
</event>
<event>
 5    1  0.1154861E-006  0.2000012E+02  0.7818608E-02  0.1745326E+00
          4   -1    0    0  501    0  0.00000000000E+00  0.00000000000E+00  0.14919017957E+02  0.14986443768E+02  0.14200000000E+01 0. -1.
         -4   -1    0    0    0  501 -0.00000000000E+00 -0.00000000000E+00 -0.65440802672E+01  0.66963711473E+01  0.14200000000E+01 0.  1.
       1023    2    1    2    0    0  0.00000000000E+00  0.00000000000E+00  0.83749376901E+01  0.21682814915E+02  0.20000122033E+02 0.  0.
        -11    1    3    3    0    0  0.31720325678E+01 -0.94836389179E+01  0.41823450865E+01  0.10839428418E+02  0.51100000000E-03 0.  1.
         11    1    3    3    0    0 -0.31720325678E+01  0.94836389179E+01  0.41925926036E+01  0.10843386498E+02  0.51100000000E-03 0. -1.
<mgrwt>
<rscale>  0 0.20000122E+02</rscale>
<asrwt>0</asrwt>
<pdfrwt beam="1">  1        4 0.23121348E-02 0.20000122E+02</pdfrwt>
<pdfrwt beam="2">  1       -4 0.10236829E-02 0.20000122E+02</pdfrwt>
<totfact> 0.12914522E+06</totfact>
</mgrwt>
</event>
<event>
 5    1  0.1154861E-006  0.2000051E+02  0.7818608E-02  0.1745318E+00
          4   -1    0    0  501    0  0.00000000000E+00  0.00000000000E+00  0.81377216721E+01  0.82606848392E+01  0.14200000000E+01 0.  1.
         -4   -1    0    0    0  501 -0.00000000000E+00 -0.00000000000E+00 -0.12031897094E+02  0.12115401259E+02  0.14200000000E+01 0. -1.
       1023    2    1    2    0    0  0.00000000000E+00  0.00000000000E+00 -0.38941754217E+01  0.20376086099E+02  0.20000507056E+02 0.  0.
        -11    1    3    3    0    0 -0.75988133844E+01  0.65009972135E+01 -0.19350015357E+01  0.10185733200E+02  0.51100000000E-03 0.  1.
         11    1    3    3    0    0  0.75988133844E+01 -0.65009972135E+01 -0.19591738860E+01  0.10190352899E+02  0.51100000000E-03 0. -1.
<mgrwt>
<rscale>  0 0.20000507E+02</rscale>
<asrwt>0</asrwt>
<pdfrwt beam="1">  1        4 0.12678393E-02 0.20000507E+02</pdfrwt>
<pdfrwt beam="2">  1       -4 0.18669432E-02 0.20000507E+02</pdfrwt>
<totfact> 0.12990996E+06</totfact>
</mgrwt>
</event>
<event>
 5    1  0.1154861E-006  0.2000179E+02  0.7818608E-02  0.1745293E+00
          4   -1    0    0  501    0  0.00000000000E+00  0.00000000000E+00  0.49228928664E+02  0.49249404234E+02  0.14200000000E+01 0. -1.
         -4   -1    0    0    0  501 -0.00000000000E+00 -0.00000000000E+00 -0.17600348147E+01  0.22614425814E+01  0.14200000000E+01 0.  1.
       1023    2    1    2    0    0  0.00000000000E+00  0.00000000000E+00  0.47468893850E+02  0.51510846816E+02  0.20001786329E+02 0.  0.
        -11    1    3    3    0    0  0.40020011967E+01  0.91651076735E+01  0.23601835020E+02  0.25633217294E+02  0.51100000000E-03 0. -1.
         11    1    3    3    0    0 -0.40020011967E+01 -0.91651076735E+01  0.23867058829E+02  0.25877629522E+02  0.51100000000E-03 0.  1.
<mgrwt>
<rscale>  0 0.20001786E+02</rscale>
<asrwt>0</asrwt>
<pdfrwt beam="1">  1        4 0.76138256E-02 0.20001786E+02</pdfrwt>
<pdfrwt beam="2">  1       -4 0.31091949E-03 0.20001786E+02</pdfrwt>
<totfact> 0.11455078E+06</totfact>
</mgrwt>
</event>
<event>
 5    1  0.1193259E-006  0.2000088E+02  0.7818608E-02  0.1745311E+00
          4   -1    0    0  501    0  0.00000000000E+00  0.00000000000E+00  0.15975238794E+02  0.16038224794E+02  0.14200000000E+01 0.  1.
         -4   -1    0    0    0  501 -0.00000000000E+00 -0.00000000000E+00 -0.61032684328E+01  0.62662816377E+01  0.14200000000E+01 0. -1.
       1023    2    1    2    0    0  0.00000000000E+00  0.00000000000E+00  0.98719703613E+01  0.22304506431E+02  0.20000880189E+02 0.  0.
        -11    1    3    3    0    0 -0.97381296717E+01 -0.22740536081E+01  0.50245873530E+01  0.11191468520E+02  0.51100000000E-03 0.  1.
         11    1    3    3    0    0  0.97381296717E+01  0.22740536081E+01  0.48473830083E+01  0.11113037911E+02  0.51100000000E-03 0. -1.
<mgrwt>
<rscale>  0 0.20000880E+02</rscale>
<asrwt>0</asrwt>
<pdfrwt beam="1">  1        4 0.24751136E-02 0.20000880E+02</pdfrwt>
<pdfrwt beam="2">  1       -4 0.95634892E-03 0.20000880E+02</pdfrwt>
<totfact> 0.12877433E+06</totfact>
</mgrwt>
</event>
<event>
 5    1  0.1165511E-006  0.2000226E+02  0.7818608E-02  0.1745283E+00
          4   -1    0    0  501    0  0.00000000000E+00  0.00000000000E+00  0.29206481445E+01  0.32475507054E+01  0.14200000000E+01 0.  1.
         -4   -1    0    0    0  501 -0.00000000000E+00 -0.00000000000E+00 -0.32088254648E+02  0.32119658876E+02  0.14200000000E+01 0. -1.
       1023    2    1    2    0    0  0.00000000000E+00  0.00000000000E+00 -0.29167606503E+02  0.35367209582E+02  0.20002255985E+02 0.  0.
        -11    1    3    3    0    0 -0.30372205610E+01  0.95278843254E+01 -0.14816182961E+02  0.17875250103E+02  0.51100000000E-03 0. -1.
         11    1    3    3    0    0  0.30372205610E+01 -0.95278843254E+01 -0.14351423542E+02  0.17491959479E+02  0.51100000000E-03 0.  1.
<mgrwt>
<rscale>  0 0.20002256E+02</rscale>
<asrwt>0</asrwt>
<pdfrwt beam="1">  1        4 0.47689257E-03 0.20002256E+02</pdfrwt>
<pdfrwt beam="2">  1       -4 0.49642164E-02 0.20002256E+02</pdfrwt>
<totfact> 0.12181150E+06</totfact>
</mgrwt>
</event>
<event>
 5    1  0.1154861E-006  0.2000138E+02  0.7818608E-02  0.1745301E+00
          4   -1    0    0  501    0  0.00000000000E+00  0.00000000000E+00  0.12116834170E+01  0.18667020928E+01  0.14200000000E+01 0. -1.
         -4   -1    0    0    0  501 -0.00000000000E+00 -0.00000000000E+00 -0.64313561363E+02  0.64329235773E+02  0.14200000000E+01 0.  1.
       1023    2    1    2    0    0  0.00000000000E+00  0.00000000000E+00 -0.63101877946E+02  0.66195937866E+02  0.20001379694E+02 0.  0.
        -11    1    3    3    0    0 -0.17374222898E+01  0.98483426618E+01 -0.31792055536E+02  0.33327815483E+02  0.51100000000E-03 0. -1.
         11    1    3    3    0    0  0.17374222898E+01 -0.98483426618E+01 -0.31309822410E+02  0.32868122383E+02  0.51100000000E-03 0.  1.
<mgrwt>
<rscale>  0 0.20001380E+02</rscale>
<asrwt>0</asrwt>
<pdfrwt beam="1">  1        4 0.23800466E-03 0.20001380E+02</pdfrwt>
<pdfrwt beam="2">  1       -4 0.99459837E-02 0.20001380E+02</pdfrwt>
<totfact> 0.10885686E+06</totfact>
</mgrwt>
</event>
<event>
 4    1  0.1154861E-006  0.2022125E+02  0.7818608E-02  0.1740964E+00
         -4   -1    0    0    0  501 -0.00000000000E+00  0.00000000000E+00  0.96078540790E+01  0.97122221969E+01  0.14200000000E+01 0. -1.
          4   -1    0    0  501    0  0.00000000000E+00 -0.00000000000E+00 -0.10429492100E+02  0.10525716387E+02  0.14200000000E+01 0.  1.
        -11    1    1    2    0    0  0.24732129161E+01  0.98023173203E+01 -0.26049507175E+00  0.10112866306E+02  0.51100000000E-03 0.  1.
         11    1    1    2    0    0 -0.24732129161E+01 -0.98023173203E+01 -0.56114294954E+00  0.10125072279E+02  0.51100000000E-03 0. -1.
<mgrwt>
<rscale>  0 0.20221253E+02</rscale>
<asrwt>0</asrwt>
<pdfrwt beam="2">  1        4 0.16199674E-02 0.20221253E+02</pdfrwt>
<pdfrwt beam="1">  1       -4 0.14935616E-02 0.20221253E+02</pdfrwt>
<totfact> 0.12710753E+06</totfact>
</mgrwt>
</event>
<event>
 5    1  0.1154861E-006  0.2000752E+02  0.7818608E-02  0.1745179E+00
         -4   -1    0    0    0  501 -0.00000000000E+00  0.00000000000E+00  0.25246066876E+01  0.28965563911E+01  0.14200000000E+01 0.  1.
          4   -1    0    0  501    0  0.00000000000E+00 -0.00000000000E+00 -0.36533494392E+02  0.36561080570E+02  0.14200000000E+01 0. -1.
       1023    2    1    2    0    0  0.00000000000E+00  0.00000000000E+00 -0.34008887704E+02  0.39457636961E+02  0.20007515381E+02 0.  0.
        -11    1    3    3    0    0  0.72978447758E+01  0.68391745777E+01 -0.16598736620E+02  0.19379135814E+02  0.51100000000E-03 0.  1.
         11    1    3    3    0    0 -0.72978447758E+01 -0.68391745777E+01 -0.17410151084E+02  0.20078501147E+02  0.51100000000E-03 0. -1.
<mgrwt>
<rscale>  0 0.20007515E+02</rscale>
<asrwt>0</asrwt>
<pdfrwt beam="2">  1        4 0.56512708E-02 0.20007515E+02</pdfrwt>
<pdfrwt beam="1">  1       -4 0.41913459E-03 0.20007515E+02</pdfrwt>
<totfact> 0.11978813E+06</totfact>
</mgrwt>
</event>
<event>
 5    1  0.1158028E-006  0.2000106E+02  0.7818608E-02  0.1745307E+00
         -4   -1    0    0    0  501 -0.00000000000E+00  0.00000000000E+00  0.49970151032E+02  0.49990323005E+02  0.14200000000E+01 0.  1.
          4   -1    0    0  501    0  0.00000000000E+00 -0.00000000000E+00 -0.17262832045E+01  0.22352748606E+01  0.14200000000E+01 0. -1.
       1023    2    1    2    0    0  0.00000000000E+00  0.00000000000E+00  0.48243867827E+02  0.52225597865E+02  0.20001057209E+02 0.  0.
        -11    1    3    3    0    0  0.10000394036E+02  0.49504336111E-01  0.24081435493E+02  0.26075388151E+02  0.51100000000E-03 0. -1.
         11    1    3    3    0    0 -0.10000394036E+02 -0.49504336111E-01  0.24162432334E+02  0.26150209715E+02  0.51100000000E-03 0.  1.
<mgrwt>
<rscale>  0 0.20001057E+02</rscale>
<asrwt>0</asrwt>
<pdfrwt beam="2">  1        4 0.30628696E-03 0.20001057E+02</pdfrwt>
<pdfrwt beam="1">  1       -4 0.77284197E-02 0.20001057E+02</pdfrwt>
<totfact> 0.11426405E+06</totfact>
</mgrwt>
</event>
<event>
 5    1  0.1190909E-006  0.2000122E+02  0.7818608E-02  0.1745304E+00
          4   -1    0    0  501    0  0.00000000000E+00  0.00000000000E+00  0.20419863387E+02  0.20469177334E+02  0.14200000000E+01 0.  1.
         -4   -1    0    0    0  501 -0.00000000000E+00 -0.00000000000E+00 -0.47383431486E+01  0.49465438231E+01  0.14200000000E+01 0. -1.
       1023    2    1    2    0    0  0.00000000000E+00  0.00000000000E+00  0.15681520238E+02  0.25415721157E+02  0.20001220087E+02 0.  0.
        -11    1    3    3    0    0 -0.74100637215E+01 -0.67157678987E+01  0.78918759945E+01  0.12739399115E+02  0.51100000000E-03 0.  1.
         11    1    3    3    0    0  0.74100637215E+01  0.67157678987E+01  0.77896442438E+01  0.12676322043E+02  0.51100000000E-03 0. -1.
<mgrwt>
<rscale>  0 0.20001220E+02</rscale>
<asrwt>0</asrwt>
<pdfrwt beam="1">  1        4 0.31613263E-02 0.20001220E+02</pdfrwt>
<pdfrwt beam="2">  1       -4 0.74878468E-03 0.20001220E+02</pdfrwt>
<totfact> 0.12700883E+06</totfact>
</mgrwt>
</event>
<event>
 5    1  0.1170345E-006  0.2000115E+02  0.7818608E-02  0.1745305E+00
          4   -1    0    0  501    0  0.00000000000E+00  0.00000000000E+00  0.30067730069E+01  0.33252193785E+01  0.14200000000E+01 0. -1.
         -4   -1    0    0    0  501 -0.00000000000E+00 -0.00000000000E+00 -0.31253898339E+02  0.31286140085E+02  0.14200000000E+01 0.  1.
       1023    2    1    2    0    0  0.00000000000E+00  0.00000000000E+00 -0.28247125332E+02  0.34611359463E+02  0.20001152825E+02 0.  0.
        -11    1    3    3    0    0 -0.90641068679E+01 -0.42251507814E+01 -0.14054432945E+02  0.17249261378E+02  0.51100000000E-03 0.  1.
         11    1    3    3    0    0  0.90641068679E+01  0.42251507814E+01 -0.14192692388E+02  0.17362098085E+02  0.51100000000E-03 0. -1.
<mgrwt>
<rscale>  0 0.20001153E+02</rscale>
<asrwt>0</asrwt>
<pdfrwt beam="1">  1        4 0.48955649E-03 0.20001153E+02</pdfrwt>
<pdfrwt beam="2">  1       -4 0.48352679E-02 0.20001153E+02</pdfrwt>
<totfact> 0.12219751E+06</totfact>
</mgrwt>
</event>
<event>
 5    1  0.1154861E-006  0.2000017E+02  0.7818608E-02  0.1745325E+00
         -4   -1    0    0    0  501 -0.00000000000E+00  0.00000000000E+00  0.22601903281E+01  0.26692433983E+01  0.14200000000E+01 0. -1.
          4   -1    0    0  501    0  0.00000000000E+00 -0.00000000000E+00 -0.40150675466E+02  0.40175778031E+02  0.14200000000E+01 0.  1.
       1023    2    1    2    0    0  0.00000000000E+00  0.00000000000E+00 -0.37890485138E+02  0.42845021429E+02  0.20000174931E+02 0.  0.
        -11    1    3    3    0    0 -0.95438274602E+01 -0.29860771480E+01 -0.18899812545E+02  0.21382334153E+02  0.51100000000E-03 0.  1.
         11    1    3    3    0    0  0.95438274602E+01  0.29860771480E+01 -0.18990672593E+02  0.21462687276E+02  0.51100000000E-03 0. -1.
<mgrwt>
<rscale>  0 0.20000175E+02</rscale>
<asrwt>0</asrwt>
<pdfrwt beam="2">  1        4 0.62104231E-02 0.20000175E+02</pdfrwt>
<pdfrwt beam="1">  1       -4 0.38111820E-03 0.20000175E+02</pdfrwt>
<totfact> 0.11831961E+06</totfact>
</mgrwt>
</event>
<event>
 5    1  0.1154861E-006  0.2000301E+02  0.7818608E-02  0.1745268E+00
         -4   -1    0    0    0  501 -0.00000000000E+00  0.00000000000E+00  0.28610599267E+00  0.14485360330E+01  0.14200000000E+01 0. -1.
          4   -1    0    0  501    0  0.00000000000E+00 -0.00000000000E+00 -0.11416247440E+03  0.11417130533E+03  0.14200000000E+01 0.  1.
       1023    2    1    2    0    0  0.00000000000E+00  0.00000000000E+00 -0.11387636841E+03  0.11561984137E+03  0.20003010662E+02 0.  0.
        -11    1    3    3    0    0 -0.75696678819E+01 -0.65368070297E+01 -0.56823942052E+02  0.57697401229E+02  0.51100000000E-03 0.  1.
         11    1    3    3    0    0  0.75696678819E+01  0.65368070297E+01 -0.57052426356E+02  0.57922440136E+02  0.51100000000E-03 0. -1.
<mgrwt>
<rscale>  0 0.20003011E+02</rscale>
<asrwt>0</asrwt>
<pdfrwt beam="2">  1        4 0.17653543E-01 0.20003011E+02</pdfrwt>
<pdfrwt beam="1">  1       -4 0.13411340E-03 0.20003011E+02</pdfrwt>
<totfact> 0.93747433E+05</totfact>
</mgrwt>
</event>
<event>
 5    1  0.1154861E-006  0.2000471E+02  0.7818608E-02  0.1745234E+00
          4   -1    0    0  501    0  0.00000000000E+00  0.00000000000E+00  0.40865139069E+00  0.14776318754E+01  0.14200000000E+01 0.  1.
         -4   -1    0    0    0  501 -0.00000000000E+00 -0.00000000000E+00 -0.10500207124E+03  0.10501167252E+03  0.14200000000E+01 0. -1.
       1023    2    1    2    0    0  0.00000000000E+00  0.00000000000E+00 -0.10459341985E+03  0.10648930439E+03  0.20004711297E+02 0.  0.
        -11    1    3    3    0    0  0.80634275800E+01  0.59172290188E+01 -0.52941118867E+02  0.53877588391E+02  0.51100000000E-03 0.  1.
         11    1    3    3    0    0 -0.80634275800E+01 -0.59172290188E+01 -0.51652300985E+02  0.52611716004E+02  0.51100000000E-03 0. -1.
<mgrwt>
<rscale>  0 0.20004711E+02</rscale>
<asrwt>0</asrwt>
<pdfrwt beam="1">  1        4 0.14583736E-03 0.20004711E+02</pdfrwt>
<pdfrwt beam="2">  1       -4 0.16237123E-01 0.20004711E+02</pdfrwt>
<totfact> 0.96157189E+05</totfact>
</mgrwt>
</event>
<event>
 5    1  0.1154861E-006  0.2000820E+02  0.7818608E-02  0.1745165E+00
         -4   -1    0    0    0  501 -0.00000000000E+00  0.00000000000E+00  0.43056488221E+01  0.45337635337E+01  0.14200000000E+01 0.  1.
          4   -1    0    0  501    0  0.00000000000E+00 -0.00000000000E+00 -0.22393314831E+02  0.22438292027E+02  0.14200000000E+01 0. -1.
       1023    2    1    2    0    0  0.00000000000E+00  0.00000000000E+00 -0.18087666008E+02  0.26972055561E+02  0.20008201307E+02 0.  0.
        -11    1    3    3    0    0 -0.30564872868E+01  0.95255400281E+01 -0.91291152995E+01  0.13543218738E+02  0.51100000000E-03 0. -1.
         11    1    3    3    0    0  0.30564872868E+01 -0.95255400281E+01 -0.89585507089E+01  0.13428836823E+02  0.51100000000E-03 0.  1.
<mgrwt>
<rscale>  0 0.20008201E+02</rscale>
<asrwt>0</asrwt>
<pdfrwt beam="2">  1        4 0.34661324E-02 0.20008201E+02</pdfrwt>
<pdfrwt beam="1">  1       -4 0.68341460E-03 0.20008201E+02</pdfrwt>
<totfact> 0.12606493E+06</totfact>
</mgrwt>
</event>
<event>
 5    1  0.1154861E-006  0.2000455E+02  0.7818608E-02  0.1745238E+00
          4   -1    0    0  501    0  0.00000000000E+00  0.00000000000E+00  0.20510830799E+02  0.20559926558E+02  0.14200000000E+01 0.  1.
         -4   -1    0    0    0  501 -0.00000000000E+00 -0.00000000000E+00 -0.47181103381E+01  0.49271660377E+01  0.14200000000E+01 0. -1.
       1023    2    1    2    0    0  0.00000000000E+00  0.00000000000E+00  0.15792720461E+02  0.25487092595E+02  0.20004546219E+02 0.  0.
        -11    1    3    3    0    0 -0.18501776046E+01  0.98285734698E+01  0.77097478764E+01  0.12627914563E+02  0.51100000000E-03 0. -1.
         11    1    3    3    0    0  0.18501776046E+01 -0.98285734698E+01  0.80829725843E+01  0.12859178033E+02  0.51100000000E-03 0.  1.
<mgrwt>
<rscale>  0 0.20004546E+02</rscale>
<asrwt>0</asrwt>
<pdfrwt beam="1">  1        4 0.31753701E-02 0.20004546E+02</pdfrwt>
<pdfrwt beam="2">  1       -4 0.74572096E-03 0.20004546E+02</pdfrwt>
<totfact> 0.12692627E+06</totfact>
</mgrwt>
</event>
<event>
 5    1  0.1192983E-006  0.2000153E+02  0.7818608E-02  0.1745298E+00
         -4   -1    0    0    0  501 -0.00000000000E+00  0.00000000000E+00  0.48507657424E+01  0.50543375716E+01  0.14200000000E+01 0.  1.
          4   -1    0    0  501    0  0.00000000000E+00 -0.00000000000E+00 -0.19965388885E+02  0.20015822575E+02  0.14200000000E+01 0. -1.
       1023    2    1    2    0    0  0.00000000000E+00  0.00000000000E+00 -0.15114623143E+02  0.25070160146E+02  0.20001527367E+02 0.  0.
        -11    1    3    3    0    0  0.89762794311E+01 -0.44092455088E+01 -0.75380722091E+01  0.12523480797E+02  0.51100000000E-03 0.  1.
         11    1    3    3    0    0 -0.89762794311E+01  0.44092455088E+01 -0.75765509338E+01  0.12546679349E+02  0.51100000000E-03 0. -1.
<mgrwt>
<rscale>  0 0.20001527E+02</rscale>
<asrwt>0</asrwt>
<pdfrwt beam="2">  1        4 0.30911371E-02 0.20001527E+02</pdfrwt>
<pdfrwt beam="1">  1       -4 0.76581055E-03 0.20001527E+02</pdfrwt>
<totfact> 0.12719704E+06</totfact>
</mgrwt>
</event>
<event>
 4    1  0.1154861E-006  0.2008564E+02  0.7818608E-02  0.1743630E+00
          4   -1    0    0  501    0  0.00000000000E+00  0.00000000000E+00  0.12822858374E+02  0.12901244005E+02  0.14200000000E+01 0. -1.
         -4   -1    0    0    0  501 -0.00000000000E+00 -0.00000000000E+00 -0.76980138990E+01  0.78278871983E+01  0.14200000000E+01 0.  1.
        -11    1    1    2    0    0 -0.59500487975E+01 -0.80497931576E+01  0.33982843957E+01  0.10571215052E+02  0.51100000000E-03 0. -1.
         11    1    1    2    0    0  0.59500487975E+01  0.80497931576E+01  0.17265600790E+01  0.10157916151E+02  0.51100000000E-03 0.  1.
<mgrwt>
<rscale>  0 0.20085638E+02</rscale>
<asrwt>0</asrwt>
<pdfrwt beam="1">  1        4 0.19887673E-02 0.20085638E+02</pdfrwt>
<pdfrwt beam="2">  1       -4 0.12003298E-02 0.20085638E+02</pdfrwt>
<totfact> 0.12858107E+06</totfact>
</mgrwt>
</event>
<event>
 5    1  0.1154861E-006  0.2000162E+02  0.7818608E-02  0.1745296E+00
         -4   -1    0    0    0  501 -0.00000000000E+00  0.00000000000E+00  0.21257407525E+00  0.14358230175E+01  0.14200000000E+01 0. -1.
          4   -1    0    0  501    0  0.00000000000E+00 -0.00000000000E+00 -0.12011903350E+03  0.12012742655E+03  0.14200000000E+01 0.  1.
       1023    2    1    2    0    0  0.00000000000E+00  0.00000000000E+00 -0.11990645943E+03  0.12156324957E+03  0.20001615761E+02 0.  0.
        -11    1    3    3    0    0  0.98739848586E+01  0.15873712578E+01 -0.59777764047E+02  0.60608550545E+02  0.51100000000E-03 0. -1.
         11    1    3    3    0    0 -0.98739848586E+01 -0.15873712578E+01 -0.60128695379E+02  0.60954699021E+02  0.51100000000E-03 0.  1.
<mgrwt>
<rscale>  0 0.20001616E+02</rscale>
<asrwt>0</asrwt>
<pdfrwt beam="2">  1        4 0.18574579E-01 0.20001616E+02</pdfrwt>
<pdfrwt beam="1">  1       -4 0.12744549E-03 0.20001616E+02</pdfrwt>
<totfact> 0.92251460E+05</totfact>
</mgrwt>
</event>
<event>
 5    1  0.1154861E-006  0.2000026E+02  0.7818608E-02  0.1745323E+00
         -4   -1    0    0    0  501 -0.00000000000E+00  0.00000000000E+00  0.31970827542E+00  0.14555457332E+01  0.14200000000E+01 0.  1.
          4   -1    0    0  501    0  0.00000000000E+00 -0.00000000000E+00 -0.11151956100E+03  0.11152860120E+03  0.14200000000E+01 0.  1.
       1023    2    1    2    0    0  0.00000000000E+00  0.00000000000E+00 -0.11119985273E+03  0.11298414694E+03  0.20000255305E+02 0.  0.
        -11    1    3    3    0    0 -0.94018835970E+01  0.34066187760E+01 -0.55857947155E+02  0.56746019484E+02  0.51100000000E-03 0. -1.
         11    1    3    3    0    0  0.94018835970E+01 -0.34066187760E+01 -0.55341905574E+02  0.56238127454E+02  0.51100000000E-03 0.  1.
<mgrwt>
<rscale>  0 0.20000255E+02</rscale>
<asrwt>0</asrwt>
<pdfrwt beam="2">  1        4 0.17244912E-01 0.20000255E+02</pdfrwt>
<pdfrwt beam="1">  1       -4 0.13725349E-03 0.20000255E+02</pdfrwt>
<totfact> 0.94459758E+05</totfact>
</mgrwt>
</event>
<event>
 5    1  0.1181954E-006  0.2000105E+02  0.7818608E-02  0.1745307E+00
          4   -1    0    0  501    0  0.00000000000E+00  0.00000000000E+00  0.41201385519E+01  0.43579744936E+01  0.14200000000E+01 0. -1.
         -4   -1    0    0    0  501 -0.00000000000E+00 -0.00000000000E+00 -0.23332613168E+02  0.23375783137E+02  0.14200000000E+01 0.  1.
       1023    2    1    2    0    0  0.00000000000E+00  0.00000000000E+00 -0.19212474617E+02  0.27733757631E+02  0.20001053258E+02 0.  0.
        -11    1    3    3    0    0 -0.88165718644E+01  0.47199032425E+01 -0.95601120766E+01  0.13834925704E+02  0.51100000000E-03 0.  1.
         11    1    3    3    0    0  0.88165718644E+01 -0.47199032425E+01 -0.96523625400E+01  0.13898831927E+02  0.51100000000E-03 0. -1.
<mgrwt>
<rscale>  0 0.20001053E+02</rscale>
<asrwt>0</asrwt>
<pdfrwt beam="1">  1        4 0.65548332E-03 0.20001053E+02</pdfrwt>
<pdfrwt beam="2">  1       -4 0.36112486E-02 0.20001053E+02</pdfrwt>
<totfact> 0.12574498E+06</totfact>
</mgrwt>
</event>
<event>
 5    1  0.1154861E-006  0.2000135E+02  0.7818608E-02  0.1745301E+00
         -4   -1    0    0    0  501 -0.00000000000E+00  0.00000000000E+00  0.88271630533E+02  0.88283051357E+02  0.14200000000E+01 0. -1.
          4   -1    0    0  501    0  0.00000000000E+00 -0.00000000000E+00 -0.67200862780E+00  0.15709855492E+01  0.14200000000E+01 0.  1.
       1023    2    1    2    0    0  0.00000000000E+00  0.00000000000E+00  0.87599621905E+02  0.89854036907E+02  0.20001354716E+02 0.  0.
        -11    1    3    3    0    0  0.89252203156E+01 -0.45105867691E+01  0.43383283764E+02  0.44520941827E+02  0.51100000000E-03 0.  1.
         11    1    3    3    0    0 -0.89252203156E+01  0.45105867691E+01  0.44216338141E+02  0.45333095080E+02  0.51100000000E-03 0. -1.
<mgrwt>
<rscale>  0 0.20001355E+02</rscale>
<asrwt>0</asrwt>
<pdfrwt beam="2">  1        4 0.17341652E-03 0.20001355E+02</pdfrwt>
<pdfrwt beam="1">  1       -4 0.13650283E-01 0.20001355E+02</pdfrwt>
<totfact> 0.10098787E+06</totfact>
</mgrwt>
</event>
<event>
 4    1  0.1154861E-006  0.2001908E+02  0.7818608E-02  0.1744949E+00
         -4   -1    0    0    0  501 -0.00000000000E+00  0.00000000000E+00  0.11469204726E+01  0.18253291677E+01  0.14200000000E+01 0.  1.
          4   -1    0    0  501    0  0.00000000000E+00 -0.00000000000E+00 -0.66729844745E+02  0.66744951717E+02  0.14200000000E+01 0. -1.
        -11    1    1    2    0    0  0.62142990808E+01  0.78427075277E+01 -0.31916236664E+02  0.33448045346E+02  0.51100000000E-03 0. -1.
         11    1    1    2    0    0 -0.62142990808E+01 -0.78427075277E+01 -0.33666687609E+02  0.35122235539E+02  0.51100000000E-03 0.  1.
<mgrwt>
<rscale>  0 0.20019078E+02</rscale>
<asrwt>0</asrwt>
<pdfrwt beam="2">  1        4 0.10319475E-01 0.20019078E+02</pdfrwt>
<pdfrwt beam="1">  1       -4 0.22979671E-03 0.20019078E+02</pdfrwt>
<totfact> 0.10780910E+06</totfact>
</mgrwt>
</event>
<event>
 5    1  0.1154861E-006  0.2000098E+02  0.7818608E-02  0.1745309E+00
         -4   -1    0    0    0  501 -0.00000000000E+00  0.00000000000E+00  0.11846698133E+03  0.11847549141E+03  0.14200000000E+01 0. -1.
          4   -1    0    0  501    0  0.00000000000E+00 -0.00000000000E+00 -0.23238604744E+00  0.14388895979E+01  0.14200000000E+01 0.  1.
       1023    2    1    2    0    0  0.00000000000E+00  0.00000000000E+00  0.11823459528E+03  0.11991438101E+03  0.20000981263E+02 0.  0.
        -11    1    3    3    0    0  0.82716807014E+01 -0.56203391553E+01  0.58937558456E+02  0.59779969144E+02  0.51100000000E-03 0.  1.
         11    1    3    3    0    0 -0.82716807014E+01  0.56203391553E+01  0.59297036824E+02  0.60134411864E+02  0.51100000000E-03 0. -1.
<mgrwt>
<rscale>  0 0.20000981E+02</rscale>
<asrwt>0</asrwt>
<pdfrwt beam="2">  1        4 0.12921439E-03 0.20000981E+02</pdfrwt>
<pdfrwt beam="1">  1       -4 0.18319137E-01 0.20000981E+02</pdfrwt>
<totfact> 0.92670652E+05</totfact>
</mgrwt>
</event>
<event>
 5    1  0.1154861E-006  0.2000023E+02  0.7818608E-02  0.1745324E+00
         -4   -1    0    0    0  501 -0.00000000000E+00  0.00000000000E+00  0.98019625854E+00  0.17254520293E+01  0.14200000000E+01 0.  1.
          4   -1    0    0  501    0  0.00000000000E+00 -0.00000000000E+00 -0.73167075736E+02  0.73180853861E+02  0.14200000000E+01 0. -1.
       1023    2    1    2    0    0  0.00000000000E+00  0.00000000000E+00 -0.72186879478E+02  0.74906305890E+02  0.20000227333E+02 0.  0.
        -11    1    3    3    0    0 -0.33416942946E+00  0.99945139151E+01 -0.36029061049E+02  0.37391111483E+02  0.51100000000E-03 0. -1.
         11    1    3    3    0    0  0.33416942946E+00 -0.99945139151E+01 -0.36157818429E+02  0.37515194408E+02  0.51100000000E-03 0.  1.
<mgrwt>
<rscale>  0 0.20000227E+02</rscale>
<asrwt>0</asrwt>
<pdfrwt beam="2">  1        4 0.11314857E-01 0.20000227E+02</pdfrwt>
<pdfrwt beam="1">  1       -4 0.20918670E-03 0.20000227E+02</pdfrwt>
<totfact> 0.10580655E+06</totfact>
</mgrwt>
</event>
<event>
 5    1  0.1154861E-006  0.2000433E+02  0.7818608E-02  0.1745242E+00
         -4   -1    0    0    0  501 -0.00000000000E+00  0.00000000000E+00  0.61861402097E+01  0.63470253421E+01  0.14200000000E+01 0. -1.
          4   -1    0    0  501    0  0.00000000000E+00 -0.00000000000E+00 -0.15771373654E+02  0.15835170568E+02  0.14200000000E+01 0.  1.
       1023    2    1    2    0    0  0.00000000000E+00  0.00000000000E+00 -0.95852334441E+01  0.22182195910E+02  0.20004327413E+02 0.  0.
        -11    1    3    3    0    0 -0.15894718807E+01 -0.98732353489E+01 -0.50032478073E+01  0.11182114558E+02  0.51100000000E-03 0.  1.
         11    1    3    3    0    0  0.15894718807E+01  0.98732353489E+01 -0.45819856368E+01  0.11000081352E+02  0.51100000000E-03 0. -1.
<mgrwt>
<rscale>  0 0.20004327E+02</rscale>
<asrwt>0</asrwt>
<pdfrwt beam="2">  1        4 0.24436484E-02 0.20004327E+02</pdfrwt>
<pdfrwt beam="1">  1       -4 0.96899712E-03 0.20004327E+02</pdfrwt>
<totfact> 0.12879978E+06</totfact>
</mgrwt>
</event>
<event>
 5    1  0.1154861E-006  0.2000028E+02  0.7818608E-02  0.1745323E+00
          4   -1    0    0  501    0  0.00000000000E+00  0.00000000000E+00  0.28125888126E+02  0.28161711292E+02  0.14200000000E+01 0. -1.
         -4   -1    0    0    0  501 -0.00000000000E+00 -0.00000000000E+00 -0.33740463642E+01  0.36606814758E+01  0.14200000000E+01 0.  1.
       1023    2    1    2    0    0  0.00000000000E+00  0.00000000000E+00  0.24751841762E+02  0.31822392767E+02  0.20000275269E+02 0.  0.
        -11    1    3    3    0    0  0.56185028189E+01  0.82725544680E+01  0.12383229236E+02  0.15916880911E+02  0.51100000000E-03 0. -1.
         11    1    3    3    0    0 -0.56185028189E+01 -0.82725544680E+01  0.12368612525E+02  0.15905511857E+02  0.51100000000E-03 0.  1.
<mgrwt>
<rscale>  0 0.20000275E+02</rscale>
<asrwt>0</asrwt>
<pdfrwt beam="1">  1        4 0.43518641E-02 0.20000275E+02</pdfrwt>
<pdfrwt beam="2">  1       -4 0.54388855E-03 0.20000275E+02</pdfrwt>
<totfact> 0.12361199E+06</totfact>
</mgrwt>
</event>
<event>
 5    1  0.1154861E-006  0.2000054E+02  0.7818608E-02  0.1745317E+00
          4   -1    0    0  501    0  0.00000000000E+00  0.00000000000E+00  0.13220431511E+02  0.13296473567E+02  0.14200000000E+01 0.  1.
         -4   -1    0    0    0  501 -0.00000000000E+00 -0.00000000000E+00 -0.73990184507E+01  0.75340476528E+01  0.14200000000E+01 0. -1.
       1023    2    1    2    0    0  0.00000000000E+00  0.00000000000E+00  0.58214130600E+01  0.20830521220E+02  0.20000544100E+02 0.  0.
        -11    1    3    3    0    0 -0.68277650531E+01 -0.73064614927E+01  0.28567327601E+01  0.10400176801E+02  0.51100000000E-03 0. -1.
         11    1    3    3    0    0  0.68277650531E+01  0.73064614927E+01  0.29646802999E+01  0.10430344419E+02  0.51100000000E-03 0.  1.
<mgrwt>
<rscale>  0 0.20000544E+02</rscale>
<asrwt>0</asrwt>
<pdfrwt beam="1">  1        4 0.20501488E-02 0.20000544E+02</pdfrwt>
<pdfrwt beam="2">  1       -4 0.11545468E-02 0.20000544E+02</pdfrwt>
<totfact> 0.12964049E+06</totfact>
</mgrwt>
</event>
<event>
 5    1  0.1172664E-006  0.2000100E+02  0.7818608E-02  0.1745308E+00
          4   -1    0    0  501    0  0.00000000000E+00  0.00000000000E+00  0.15509458187E+02  0.15574328019E+02  0.14200000000E+01 0.  1.
         -4   -1    0    0    0  501 -0.00000000000E+00 -0.00000000000E+00 -0.62906925428E+01  0.64489698920E+01  0.14200000000E+01 0. -1.
       1023    2    1    2    0    0  0.00000000000E+00  0.00000000000E+00  0.92187656440E+01  0.22023297911E+02  0.20001000247E+02 0.  0.
        -11    1    3    3    0    0  0.24561401545E+01 -0.96941272770E+01  0.46486900971E+01  0.11028102647E+02  0.51100000000E-03 0. -1.
         11    1    3    3    0    0 -0.24561401545E+01  0.96941272770E+01  0.45700755469E+01  0.10995195264E+02  0.51100000000E-03 0.  1.
<mgrwt>
<rscale>  0 0.20001000E+02</rscale>
<asrwt>0</asrwt>
<pdfrwt beam="1">  1        4 0.24032356E-02 0.20001000E+02</pdfrwt>
<pdfrwt beam="2">  1       -4 0.98496403E-03 0.20001000E+02</pdfrwt>
<totfact> 0.12893556E+06</totfact>
</mgrwt>
</event>
<event>
 5    1  0.1154861E-006  0.2000074E+02  0.7818608E-02  0.1745313E+00
         -4   -1    0    0    0  501 -0.00000000000E+00  0.00000000000E+00  0.86702488173E+02  0.86714115664E+02  0.14200000000E+01 0.  1.
          4   -1    0    0  501    0  0.00000000000E+00 -0.00000000000E+00 -0.70019416292E+00  0.15832472535E+01  0.14200000000E+01 0. -1.
       1023    2    1    2    0    0  0.00000000000E+00  0.00000000000E+00  0.86002294010E+02  0.88297362918E+02  0.20000743066E+02 0.  0.
        -11    1    3    3    0    0 -0.40330169026E+01 -0.91510639207E+01  0.43068725063E+02  0.44214502995E+02  0.51100000000E-03 0. -1.
         11    1    3    3    0    0  0.40330169026E+01  0.91510639207E+01  0.42933568947E+02  0.44082859923E+02  0.51100000000E-03 0.  1.
<mgrwt>
<rscale>  0 0.20000743E+02</rscale>
<asrwt>0</asrwt>
<pdfrwt beam="2">  1        4 0.17654375E-03 0.20000743E+02</pdfrwt>
<pdfrwt beam="1">  1       -4 0.13407667E-01 0.20000743E+02</pdfrwt>
<totfact> 0.10147122E+06</totfact>
</mgrwt>
</event>
<event>
 5    1  0.1154861E-006  0.2000051E+02  0.7818608E-02  0.1745318E+00
          4   -1    0    0  501    0  0.00000000000E+00  0.00000000000E+00  0.66470718976E+00  0.15678761584E+01  0.14200000000E+01 0. -1.
         -4   -1    0    0    0  501 -0.00000000000E+00 -0.00000000000E+00 -0.88675703113E+02  0.88687071902E+02  0.14200000000E+01 0.  1.
       1023    2    1    2    0    0  0.00000000000E+00  0.00000000000E+00 -0.88010995923E+02  0.90254948060E+02  0.20000506144E+02 0.  0.
        -11    1    3    3    0    0 -0.34230567159E+01 -0.93959896566E+01 -0.44257654336E+02  0.45373361199E+02  0.51100000000E-03 0. -1.
         11    1    3    3    0    0  0.34230567159E+01  0.93959896566E+01 -0.43753341587E+02  0.44881586861E+02  0.51100000000E-03 0.  1.
<mgrwt>
<rscale>  0 0.20000506E+02</rscale>
<asrwt>0</asrwt>
<pdfrwt beam="1">  1        4 0.17261177E-03 0.20000506E+02</pdfrwt>
<pdfrwt beam="2">  1       -4 0.13712759E-01 0.20000506E+02</pdfrwt>
<totfact> 0.10087438E+06</totfact>
</mgrwt>
</event>
<event>
 5    1  0.1154861E-006  0.2000031E+02  0.7818608E-02  0.1745322E+00
          4   -1    0    0  501    0  0.00000000000E+00  0.00000000000E+00  0.11101049402E+03  0.11101957567E+03  0.14200000000E+01 0. -1.
         -4   -1    0    0    0  501 -0.00000000000E+00 -0.00000000000E+00 -0.32637924226E+00  0.14570255350E+01  0.14200000000E+01 0.  1.
       1023    2    1    2    0    0  0.00000000000E+00  0.00000000000E+00  0.11068411477E+03  0.11247660120E+03  0.20000313876E+02 0.  0.
        -11    1    3    3    0    0 -0.94582750126E+01  0.32467408582E+01  0.55642077768E+02  0.56533539700E+02  0.51100000000E-03 0. -1.
         11    1    3    3    0    0  0.94582750126E+01 -0.32467408582E+01  0.55042037007E+02  0.55943061505E+02  0.51100000000E-03 0.  1.
<mgrwt>
<rscale>  0 0.20000314E+02</rscale>
<asrwt>0</asrwt>
<pdfrwt beam="1">  1        4 0.17166200E-01 0.20000314E+02</pdfrwt>
<pdfrwt beam="2">  1       -4 0.13788364E-03 0.20000314E+02</pdfrwt>
<totfact> 0.94592689E+05</totfact>
</mgrwt>
</event>
<event>
 5    1  0.1154861E-006  0.2000242E+02  0.7818608E-02  0.1745280E+00
          4   -1    0    0  501    0  0.00000000000E+00  0.00000000000E+00  0.44162140871E+02  0.44184964483E+02  0.14200000000E+01 0.  1.
         -4   -1    0    0    0  501 -0.00000000000E+00 -0.00000000000E+00 -0.20165664814E+01  0.24663617687E+01  0.14200000000E+01 0. -1.
       1023    2    1    2    0    0  0.00000000000E+00  0.00000000000E+00  0.42145574390E+02  0.46651326252E+02  0.20002419863E+02 0.  0.
        -11    1    3    3    0    0 -0.94197781531E+01 -0.33569684314E+01  0.20721065705E+02  0.23007912155E+02  0.51100000000E-03 0. -1.
         11    1    3    3    0    0  0.94197781531E+01  0.33569684314E+01  0.21424508685E+02  0.23643414097E+02  0.51100000000E-03 0.  1.
<mgrwt>
<rscale>  0 0.20002420E+02</rscale>
<asrwt>0</asrwt>
<pdfrwt beam="1">  1        4 0.68305312E-02 0.20002420E+02</pdfrwt>
<pdfrwt beam="2">  1       -4 0.34659628E-03 0.20002420E+02</pdfrwt>
<totfact> 0.11660553E+06</totfact>
</mgrwt>
</event>
<event>
 5    1  0.1154861E-006  0.2000023E+02  0.7818608E-02  0.1745324E+00
         -4   -1    0    0    0  501 -0.00000000000E+00  0.00000000000E+00  0.85148867003E+01  0.86324791062E+01  0.14200000000E+01 0.  1.
          4   -1    0    0  501    0  0.00000000000E+00 -0.00000000000E+00 -0.11502313093E+02  0.11589633578E+02  0.14200000000E+01 0. -1.
       1023    2    1    2    0    0  0.00000000000E+00  0.00000000000E+00 -0.29874263922E+01  0.20222112684E+02  0.20000228123E+02 0.  0.
        -11    1    3    3    0    0 -0.23814940061E+01  0.97124026921E+01 -0.14948338388E+01  0.10111221896E+02  0.51100000000E-03 0.  1.
         11    1    3    3    0    0  0.23814940061E+01 -0.97124026921E+01 -0.14925925534E+01  0.10110890789E+02  0.51100000000E-03 0. -1.
<mgrwt>
<rscale>  0 0.20000228E+02</rscale>
<asrwt>0</asrwt>
<pdfrwt beam="2">  1        4 0.17853492E-02 0.20000228E+02</pdfrwt>
<pdfrwt beam="1">  1       -4 0.13257451E-02 0.20000228E+02</pdfrwt>
<totfact> 0.13000522E+06</totfact>
</mgrwt>
</event>
<event>
 5    1  0.1169338E-006  0.2000072E+02  0.7818608E-02  0.1745314E+00
          4   -1    0    0  501    0  0.00000000000E+00  0.00000000000E+00  0.20970342392E+02  0.21018364828E+02  0.14200000000E+01 0.  1.
         -4   -1    0    0    0  501 -0.00000000000E+00 -0.00000000000E+00 -0.46084773949E+01  0.48222882430E+01  0.14200000000E+01 0. -1.
       1023    2    1    2    0    0  0.00000000000E+00  0.00000000000E+00  0.16361864997E+02  0.25840653071E+02  0.20000718111E+02 0.  0.
        -11    1    3    3    0    0 -0.58000355102E+01 -0.81465210180E+01  0.82210539960E+01  0.12945730790E+02  0.51100000000E-03 0.  1.
         11    1    3    3    0    0  0.58000355102E+01  0.81465210180E+01  0.81408110008E+01  0.12894922281E+02  0.51100000000E-03 0. -1.
<mgrwt>
<rscale>  0 0.20000718E+02</rscale>
<asrwt>0</asrwt>
<pdfrwt beam="1">  1        4 0.32463475E-02 0.20000718E+02</pdfrwt>
<pdfrwt beam="2">  1       -4 0.72913756E-03 0.20000718E+02</pdfrwt>
<totfact> 0.12678023E+06</totfact>
</mgrwt>
</event>
<event>
 5    1  0.1154861E-006  0.2000071E+02  0.7818608E-02  0.1745314E+00
          4   -1    0    0  501    0  0.00000000000E+00  0.00000000000E+00  0.11782436961E+01  0.18451715929E+01  0.14200000000E+01 0. -1.
         -4   -1    0    0    0  501 -0.00000000000E+00 -0.00000000000E+00 -0.65478732608E+02  0.65494128164E+02  0.14200000000E+01 0.  1.
       1023    2    1    2    0    0  0.00000000000E+00  0.00000000000E+00 -0.64300488912E+02  0.67339299757E+02  0.20000710423E+02 0.  0.
        -11    1    3    3    0    0 -0.97798323734E+01 -0.20872103263E+01 -0.31899739008E+02  0.33430448954E+02  0.51100000000E-03 0. -1.
         11    1    3    3    0    0  0.97798323734E+01  0.20872103263E+01 -0.32400749904E+02  0.33908850803E+02  0.51100000000E-03 0.  1.
<mgrwt>
<rscale>  0 0.20000710E+02</rscale>
<asrwt>0</asrwt>
<pdfrwt beam="1">  1        4 0.23375473E-03 0.20000710E+02</pdfrwt>
<pdfrwt beam="2">  1       -4 0.10126135E-01 0.20000710E+02</pdfrwt>
<totfact> 0.10844978E+06</totfact>
</mgrwt>
</event>
<event>
 5    1  0.1201016E-006  0.2000099E+02  0.7818608E-02  0.1745308E+00
         -4   -1    0    0    0  501 -0.00000000000E+00  0.00000000000E+00  0.92082264729E+01  0.93170722213E+01  0.14200000000E+01 0. -1.
          4   -1    0    0  501    0  0.00000000000E+00 -0.00000000000E+00 -0.10640828264E+02  0.10735158413E+02  0.14200000000E+01 0.  1.
       1023    2    1    2    0    0  0.00000000000E+00  0.00000000000E+00 -0.14326017912E+01  0.20052230634E+02  0.20000990113E+02 0.  0.
        -11    1    3    3    0    0 -0.57557946721E-01 -0.10000247629E+02 -0.75684647284E+00  0.10029012035E+02  0.51100000000E-03 0. -1.
         11    1    3    3    0    0  0.57557946721E-01  0.10000247629E+02 -0.67575531835E+00  0.10023218599E+02  0.51100000000E-03 0.  1.
<mgrwt>
<rscale>  0 0.20000990E+02</rscale>
<asrwt>0</asrwt>
<pdfrwt beam="2">  1        4 0.16526794E-02 0.20000990E+02</pdfrwt>
<pdfrwt beam="1">  1       -4 0.14322791E-02 0.20000990E+02</pdfrwt>
<totfact> 0.13009630E+06</totfact>
</mgrwt>
</event>
<event>
 5    1  0.1154861E-006  0.2000074E+02  0.7818608E-02  0.1745313E+00
          4   -1    0    0  501    0  0.00000000000E+00  0.00000000000E+00  0.28595684641E+02  0.28630920001E+02  0.14200000000E+01 0.  1.
         -4   -1    0    0    0  501 -0.00000000000E+00 -0.00000000000E+00 -0.33141103488E+01  0.36055134730E+01  0.14200000000E+01 0. -1.
       1023    2    1    2    0    0  0.00000000000E+00  0.00000000000E+00  0.25281574292E+02  0.32236433474E+02  0.20000741097E+02 0.  0.
        -11    1    3    3    0    0  0.36593887720E+01 -0.93065119629E+01  0.12525461727E+02  0.16027772235E+02  0.51100000000E-03 0. -1.
         11    1    3    3    0    0 -0.36593887720E+01  0.93065119629E+01  0.12756112566E+02  0.16208661239E+02  0.51100000000E-03 0.  1.
<mgrwt>
<rscale>  0 0.20000741E+02</rscale>
<asrwt>0</asrwt>
<pdfrwt beam="1">  1        4 0.44244622E-02 0.20000741E+02</pdfrwt>
<pdfrwt beam="2">  1       -4 0.53498916E-03 0.20000741E+02</pdfrwt>
<totfact> 0.12339478E+06</totfact>
</mgrwt>
</event>
<event>
 5    1  0.1154861E-006  0.2000998E+02  0.7818608E-02  0.1745130E+00
         -4   -1    0    0    0  501 -0.00000000000E+00  0.00000000000E+00  0.11744906589E+02  0.11830436627E+02  0.14200000000E+01 0.  1.
          4   -1    0    0  501    0  0.00000000000E+00 -0.00000000000E+00 -0.83461893110E+01  0.84661252067E+01  0.14200000000E+01 0. -1.
       1023    2    1    2    0    0  0.00000000000E+00  0.00000000000E+00  0.33987172781E+01  0.20296561834E+02  0.20009976090E+02 0.  0.
        -11    1    3    3    0    0 -0.69985284073E+01 -0.71487020563E+01  0.15692856580E+01  0.10126499825E+02  0.51100000000E-03 0. -1.
         11    1    3    3    0    0  0.69985284073E+01  0.71487020563E+01  0.18294316200E+01  0.10170062009E+02  0.51100000000E-03 0.  1.
<mgrwt>
<rscale>  0 0.20009976E+02</rscale>
<asrwt>0</asrwt>
<pdfrwt beam="2">  1        4 0.12998342E-02 0.20009976E+02</pdfrwt>
<pdfrwt beam="1">  1       -4 0.18227138E-02 0.20009976E+02</pdfrwt>
<totfact> 0.12983170E+06</totfact>
</mgrwt>
</event>
<event>
 4    1  0.1154861E-006  0.2014382E+02  0.7818608E-02  0.1742483E+00
          4   -1    0    0  501    0  0.00000000000E+00  0.00000000000E+00  0.92337711522E+00  0.16938197357E+01  0.14200000000E+01 0. -1.
         -4   -1    0    0    0  501 -0.00000000000E+00 -0.00000000000E+00 -0.76741715379E+02  0.76754851829E+02  0.14200000000E+01 0.  1.
        -11    1    1    2    0    0  0.10058435146E+02  0.15417391355E+00 -0.35971614523E+02  0.37351746129E+02  0.51100000000E-03 0. -1.
         11    1    1    2    0    0 -0.10058435146E+02 -0.15417391355E+00 -0.39846723740E+02  0.41096925436E+02  0.51100000000E-03 0.  1.
<mgrwt>
<rscale>  0 0.20143824E+02</rscale>
<asrwt>0</asrwt>
<pdfrwt beam="1">  1        4 0.20233339E-03 0.20143824E+02</pdfrwt>
<pdfrwt beam="2">  1       -4 0.11866690E-01 0.20143824E+02</pdfrwt>
<totfact> 0.10312940E+06</totfact>
</mgrwt>
</event>
<event>
 5    1  0.1154861E-006  0.2000037E+02  0.7818608E-02  0.1745321E+00
          4   -1    0    0  501    0  0.00000000000E+00  0.00000000000E+00  0.16138502604E+01  0.21496308202E+01  0.14200000000E+01 0. -1.
         -4   -1    0    0    0  501 -0.00000000000E+00 -0.00000000000E+00 -0.52597509893E+02  0.52616674609E+02  0.14200000000E+01 0.  1.
       1023    2    1    2    0    0  0.00000000000E+00  0.00000000000E+00 -0.50983659632E+02  0.54766305429E+02  0.20000366518E+02 0.  0.
        -11    1    3    3    0    0 -0.89630138290E+01 -0.44347768239E+01 -0.25414255353E+02  0.27310936230E+02  0.51100000000E-03 0.  1.
         11    1    3    3    0    0  0.89630138290E+01  0.44347768239E+01 -0.25569404279E+02  0.27455369199E+02  0.51100000000E-03 0. -1.
<mgrwt>
<rscale>  0 0.20000367E+02</rscale>
<asrwt>0</asrwt>
<pdfrwt beam="1">  1        4 0.29097279E-03 0.20000367E+02</pdfrwt>
<pdfrwt beam="2">  1       -4 0.81346116E-02 0.20000367E+02</pdfrwt>
<totfact> 0.11323874E+06</totfact>
</mgrwt>
</event>
<event>
 5    1  0.1154861E-006  0.2000042E+02  0.7818608E-02  0.1745320E+00
          4   -1    0    0  501    0  0.00000000000E+00  0.00000000000E+00  0.17823021751E+02  0.17879499555E+02  0.14200000000E+01 0.  1.
         -4   -1    0    0    0  501 -0.00000000000E+00 -0.00000000000E+00 -0.54545582065E+01  0.56363645401E+01  0.14200000000E+01 0. -1.
       1023    2    1    2    0    0  0.00000000000E+00  0.00000000000E+00  0.12368463544E+02  0.23515864095E+02  0.20000424338E+02 0.  0.
        -11    1    3    3    0    0 -0.42373914236E+01 -0.90580023696E+01  0.62274347232E+01  0.11780655181E+02  0.51100000000E-03 0. -1.
         11    1    3    3    0    0  0.42373914236E+01  0.90580023696E+01  0.61410288211E+01  0.11735208914E+02  0.51100000000E-03 0.  1.
<mgrwt>
<rscale>  0 0.20000424E+02</rscale>
<asrwt>0</asrwt>
<pdfrwt beam="1">  1        4 0.27603329E-02 0.20000424E+02</pdfrwt>
<pdfrwt beam="2">  1       -4 0.85749235E-03 0.20000424E+02</pdfrwt>
<totfact> 0.12808611E+06</totfact>
</mgrwt>
</event>
<event>
 4    1  0.1154861E-006  0.2012060E+02  0.7818608E-02  0.1742940E+00
          4   -1    0    0  501    0  0.00000000000E+00  0.00000000000E+00  0.42782590510E+02  0.42806149684E+02  0.14200000000E+01 0.  1.
         -4   -1    0    0    0  501 -0.00000000000E+00 -0.00000000000E+00 -0.21261066808E+01  0.25567028803E+01  0.14200000000E+01 0. -1.
        -11    1    1    2    0    0  0.68928740414E+00  0.10013685738E+02  0.21858445827E+02  0.24052872457E+02  0.51100000000E-03 0.  1.
         11    1    1    2    0    0 -0.68928740414E+00 -0.10013685738E+02  0.18798038002E+02  0.21309980107E+02  0.51100000000E-03 0. -1.
<mgrwt>
<rscale>  0 0.20120604E+02</rscale>
<asrwt>0</asrwt>
<pdfrwt beam="1">  1        4 0.66168725E-02 0.20120604E+02</pdfrwt>
<pdfrwt beam="2">  1       -4 0.36202834E-03 0.20120604E+02</pdfrwt>
<totfact> 0.11578179E+06</totfact>
</mgrwt>
</event>
<event>
 5    1  0.1154861E-006  0.2000048E+02  0.7818608E-02  0.1745319E+00
         -4   -1    0    0    0  501 -0.00000000000E+00  0.00000000000E+00  0.44014417688E+00  0.14866495540E+01  0.14200000000E+01 0. -1.
          4   -1    0    0  501    0  0.00000000000E+00 -0.00000000000E+00 -0.10275024290E+03  0.10276005458E+03  0.14200000000E+01 0.  1.
       1023    2    1    2    0    0  0.00000000000E+00  0.00000000000E+00 -0.10231009873E+03  0.10424670413E+03  0.20000475514E+02 0.  0.
        -11    1    3    3    0    0  0.64722429343E+01 -0.76233077853E+01 -0.51143696194E+02  0.52112209806E+02  0.51100000000E-03 0. -1.
         11    1    3    3    0    0 -0.64722429343E+01  0.76233077853E+01 -0.51166402531E+02  0.52134494324E+02  0.51100000000E-03 0.  1.
<mgrwt>
<rscale>  0 0.20000476E+02</rscale>
<asrwt>0</asrwt>
<pdfrwt beam="2">  1        4 0.15888976E-01 0.20000476E+02</pdfrwt>
<pdfrwt beam="1">  1       -4 0.14896973E-03 0.20000476E+02</pdfrwt>
<totfact> 0.96815141E+05</totfact>
</mgrwt>
</event>
<event>
 5    1  0.1164702E-006  0.2000050E+02  0.7818608E-02  0.1745318E+00
          4   -1    0    0  501    0  0.00000000000E+00  0.00000000000E+00  0.20565840869E+02  0.20614805618E+02  0.14200000000E+01 0.  1.
         -4   -1    0    0    0  501 -0.00000000000E+00 -0.00000000000E+00 -0.47029528653E+01  0.49126536264E+01  0.14200000000E+01 0.  1.
       1023    2    1    2    0    0  0.00000000000E+00  0.00000000000E+00  0.15862888004E+02  0.25527459244E+02  0.20000498985E+02 0.  0.
        -11    1    3    3    0    0  0.92860763670E+01  0.37106353005E+01  0.78415455335E+01  0.12707866274E+02  0.51100000000E-03 0. -1.
         11    1    3    3    0    0 -0.92860763670E+01 -0.37106353005E+01  0.80213424704E+01  0.12819592970E+02  0.51100000000E-03 0.  1.
<mgrwt>
<rscale>  0 0.20000499E+02</rscale>
<asrwt>0</asrwt>
<pdfrwt beam="1">  1        4 0.31838729E-02 0.20000499E+02</pdfrwt>
<pdfrwt beam="2">  1       -4 0.74342856E-03 0.20000499E+02</pdfrwt>
<totfact> 0.12695620E+06</totfact>
</mgrwt>
</event>
<event>
 5    1  0.1165287E-006  0.2000220E+02  0.7818608E-02  0.1745284E+00
          4   -1    0    0  501    0  0.00000000000E+00  0.00000000000E+00  0.97095142506E+01  0.98128011792E+01  0.14200000000E+01 0.  1.
         -4   -1    0    0    0  501 -0.00000000000E+00 -0.00000000000E+00 -0.10093694088E+02  0.10193088852E+02  0.14200000000E+01 0. -1.
       1023    2    1    2    0    0  0.00000000000E+00  0.00000000000E+00 -0.38417983706E+00  0.20005890031E+02  0.20002200923E+02 0.  0.
        -11    1    3    3    0    0 -0.78396089104E+01  0.62097544456E+01 -0.15345586202E+00  0.10002203113E+02  0.51100000000E-03 0.  1.
         11    1    3    3    0    0  0.78396089104E+01 -0.62097544456E+01 -0.23072397505E+00  0.10003686918E+02  0.51100000000E-03 0. -1.
<mgrwt>
<rscale>  0 0.20002201E+02</rscale>
<asrwt>0</asrwt>
<pdfrwt beam="1">  1        4 0.15093623E-02 0.20002201E+02</pdfrwt>
<pdfrwt beam="2">  1       -4 0.15684669E-02 0.20002201E+02</pdfrwt>
<totfact> 0.13010771E+06</totfact>
</mgrwt>
</event>
<event>
 5    1  0.1154861E-006  0.2000092E+02  0.7818608E-02  0.1745310E+00
          4   -1    0    0  501    0  0.00000000000E+00  0.00000000000E+00  0.10415409732E+03  0.10416377676E+03  0.14200000000E+01 0. -1.
         -4   -1    0    0    0  501 -0.00000000000E+00 -0.00000000000E+00 -0.42007857303E+00  0.14808328763E+01  0.14200000000E+01 0.  1.
       1023    2    1    2    0    0  0.00000000000E+00  0.00000000000E+00  0.10373401874E+03  0.10564460963E+03  0.20000922464E+02 0.  0.
        -11    1    3    3    0    0 -0.31393362420E+00 -0.99953562219E+01  0.51553441106E+02  0.52514407456E+02  0.51100000000E-03 0. -1.
         11    1    3    3    0    0  0.31393362420E+00  0.99953562219E+01  0.52180577638E+02  0.53130202176E+02  0.51100000000E-03 0.  1.
<mgrwt>
<rscale>  0 0.20000922E+02</rscale>
<asrwt>0</asrwt>
<pdfrwt beam="1">  1        4 0.16106044E-01 0.20000922E+02</pdfrwt>
<pdfrwt beam="2">  1       -4 0.14696857E-03 0.20000922E+02</pdfrwt>
<totfact> 0.96425007E+05</totfact>
</mgrwt>
</event>
<event>
 5    1  0.1180438E-006  0.2000152E+02  0.7818608E-02  0.1745298E+00
          4   -1    0    0  501    0  0.00000000000E+00  0.00000000000E+00  0.40208366188E+01  0.42642147126E+01  0.14200000000E+01 0. -1.
         -4   -1    0    0    0  501 -0.00000000000E+00 -0.00000000000E+00 -0.23878443939E+02  0.23920628858E+02  0.14200000000E+01 0. -1.
       1023    2    1    2    0    0  0.00000000000E+00  0.00000000000E+00 -0.19857607320E+02  0.28184843570E+02  0.20001520907E+02 0.  0.
        -11    1    3    3    0    0  0.67975161568E+01 -0.73345349217E+01 -0.97645867143E+01  0.13976722877E+02  0.51100000000E-03 0. -1.
         11    1    3    3    0    0 -0.67975161568E+01  0.73345349217E+01 -0.10093020606E+02  0.14208120693E+02  0.51100000000E-03 0.  1.
<mgrwt>
<rscale>  0 0.20001521E+02</rscale>
<asrwt>0</asrwt>
<pdfrwt beam="1">  1        4 0.64055665E-03 0.20001521E+02</pdfrwt>
<pdfrwt beam="2">  1       -4 0.36955731E-02 0.20001521E+02</pdfrwt>
<totfact> 0.12549715E+06</totfact>
</mgrwt>
</event>
<event>
 5    1  0.1154861E-006  0.2000328E+02  0.7818608E-02  0.1745263E+00
          4   -1    0    0  501    0  0.00000000000E+00  0.00000000000E+00  0.42108110789E+00  0.14811175846E+01  0.14200000000E+01 0.  1.
         -4   -1    0    0    0  501 -0.00000000000E+00 -0.00000000000E+00 -0.10410836368E+03  0.10411804737E+03  0.14200000000E+01 0. -1.
       1023    2    1    2    0    0  0.00000000000E+00  0.00000000000E+00 -0.10368728257E+03  0.10559916495E+03  0.20003276529E+02 0.  0.
        -11    1    3    3    0    0  0.96011718124E+01  0.28010292628E+01 -0.52197876363E+02  0.53147404097E+02  0.51100000000E-03 0. -1.
         11    1    3    3    0    0 -0.96011718124E+01 -0.28010292628E+01 -0.51489406207E+02  0.52451760856E+02  0.51100000000E-03 0.  1.
<mgrwt>
<rscale>  0 0.20003277E+02</rscale>
<asrwt>0</asrwt>
<pdfrwt beam="1">  1        4 0.14706796E-03 0.20003277E+02</pdfrwt>
<pdfrwt beam="2">  1       -4 0.16098948E-01 0.20003277E+02</pdfrwt>
<totfact> 0.96414892E+05</totfact>
</mgrwt>
</event>
<event>
 5    1  0.1154861E-006  0.2000016E+02  0.7818608E-02  0.1745325E+00
          4   -1    0    0  501    0  0.00000000000E+00  0.00000000000E+00  0.55916918250E+02  0.55934945665E+02  0.14200000000E+01 0.  1.
         -4   -1    0    0    0  501 -0.00000000000E+00 -0.00000000000E+00 -0.14852372231E+01  0.20548307981E+01  0.14200000000E+01 0. -1.
       1023    2    1    2    0    0  0.00000000000E+00  0.00000000000E+00  0.54431681027E+02  0.57989776463E+02  0.20000156871E+02 0.  0.
        -11    1    3    3    0    0  0.94903888531E+00 -0.99549146205E+01  0.27284976029E+02  0.29059781780E+02  0.51100000000E-03 0. -1.
         11    1    3    3    0    0 -0.94903888531E+00  0.99549146205E+01  0.27146704997E+02  0.28929994683E+02  0.51100000000E-03 0.  1.
<mgrwt>
<rscale>  0 0.20000157E+02</rscale>
<asrwt>0</asrwt>
<pdfrwt beam="1">  1        4 0.86478029E-02 0.20000157E+02</pdfrwt>
<pdfrwt beam="2">  1       -4 0.27369970E-03 0.20000157E+02</pdfrwt>
<totfact> 0.11196459E+06</totfact>
</mgrwt>
</event>
<event>
 5    1  0.1160359E-006  0.2000081E+02  0.7818608E-02  0.1745312E+00
         -4   -1    0    0    0  501 -0.00000000000E+00  0.00000000000E+00  0.21444823714E+02  0.21491785968E+02  0.14200000000E+01 0.  1.
          4   -1    0    0  501    0  0.00000000000E+00 -0.00000000000E+00 -0.45020090284E+01  0.47206445844E+01  0.14200000000E+01 0. -1.
       1023    2    1    2    0    0  0.00000000000E+00  0.00000000000E+00  0.16942814685E+02  0.26212430553E+02  0.20000813634E+02 0.  0.
        -11    1    3    3    0    0 -0.85756031917E+01 -0.51444097449E+01  0.84097337231E+01  0.13066351567E+02  0.51100000000E-03 0. -1.
         11    1    3    3    0    0  0.85756031917E+01  0.51444097449E+01  0.85330809619E+01  0.13146078985E+02  0.51100000000E-03 0.  1.
<mgrwt>
<rscale>  0 0.20000814E+02</rscale>
<asrwt>0</asrwt>
<pdfrwt beam="2">  1        4 0.71304737E-03 0.20000814E+02</pdfrwt>
<pdfrwt beam="1">  1       -4 0.33196343E-02 0.20000814E+02</pdfrwt>
<totfact> 0.12657444E+06</totfact>
</mgrwt>
</event>
<event>
 5    1  0.1154861E-006  0.2000046E+02  0.7818608E-02  0.1745319E+00
          4   -1    0    0  501    0  0.00000000000E+00  0.00000000000E+00  0.33152174789E+01  0.36065311495E+01  0.14200000000E+01 0.  1.
         -4   -1    0    0    0  501 -0.00000000000E+00 -0.00000000000E+00 -0.28586086598E+02  0.28621333774E+02  0.14200000000E+01 0. -1.
       1023    2    1    2    0    0  0.00000000000E+00  0.00000000000E+00 -0.25270869119E+02  0.32227864923E+02  0.20000461282E+02 0.  0.
        -11    1    3    3    0    0 -0.77793422040E+01 -0.62835048341E+01 -0.12737529962E+02  0.16193988635E+02  0.51100000000E-03 0. -1.
         11    1    3    3    0    0  0.77793422040E+01  0.62835048341E+01 -0.12533339157E+02  0.16033876288E+02  0.51100000000E-03 0.  1.
<mgrwt>
<rscale>  0 0.20000461E+02</rscale>
<asrwt>0</asrwt>
<pdfrwt beam="1">  1        4 0.53515354E-03 0.20000461E+02</pdfrwt>
<pdfrwt beam="2">  1       -4 0.44229794E-02 0.20000461E+02</pdfrwt>
<totfact> 0.12340265E+06</totfact>
</mgrwt>
</event>
<event>
 5    1  0.1154861E-006  0.2000034E+02  0.7818608E-02  0.1745321E+00
         -4   -1    0    0    0  501 -0.00000000000E+00  0.00000000000E+00  0.38384391682E+01  0.40926782488E+01  0.14200000000E+01 0.  1.
          4   -1    0    0  501    0  0.00000000000E+00 -0.00000000000E+00 -0.24942916730E+02  0.24983304325E+02  0.14200000000E+01 0. -1.
       1023    2    1    2    0    0  0.00000000000E+00  0.00000000000E+00 -0.21104477562E+02  0.29075982574E+02  0.20000344734E+02 0.  0.
        -11    1    3    3    0    0 -0.99897524034E+01 -0.45477715424E+00 -0.10496466737E+02  0.14497509771E+02  0.51100000000E-03 0. -1.
         11    1    3    3    0    0  0.99897524034E+01  0.45477715424E+00 -0.10608010824E+02  0.14578472803E+02  0.51100000000E-03 0.  1.
<mgrwt>
<rscale>  0 0.20000345E+02</rscale>
<asrwt>0</asrwt>
<pdfrwt beam="2">  1        4 0.38600353E-02 0.20000345E+02</pdfrwt>
<pdfrwt beam="1">  1       -4 0.61319270E-03 0.20000345E+02</pdfrwt>
<totfact> 0.12503848E+06</totfact>
</mgrwt>
</event>
<event>
 5    1  0.1154861E-006  0.2000355E+02  0.7818608E-02  0.1745257E+00
         -4   -1    0    0    0  501 -0.00000000000E+00  0.00000000000E+00  0.36561734417E+01  0.39222447955E+01  0.14200000000E+01 0. -1.
          4   -1    0    0  501    0  0.00000000000E+00 -0.00000000000E+00 -0.26114074880E+02  0.26152653915E+02  0.14200000000E+01 0.  1.
       1023    2    1    2    0    0  0.00000000000E+00  0.00000000000E+00 -0.22457901438E+02  0.30074898711E+02  0.20003554571E+02 0.  0.
        -11    1    3    3    0    0 -0.75040554923E+01  0.66107812767E+01 -0.11453320216E+02  0.15204993330E+02  0.51100000000E-03 0.  1.
         11    1    3    3    0    0  0.75040554923E+01 -0.66107812767E+01 -0.11004581222E+02  0.14869905381E+02  0.51100000000E-03 0. -1.
<mgrwt>
<rscale>  0 0.20003555E+02</rscale>
<asrwt>0</asrwt>
<pdfrwt beam="2">  1        4 0.40409845E-02 0.20003555E+02</pdfrwt>
<pdfrwt beam="1">  1       -4 0.58592288E-03 0.20003555E+02</pdfrwt>
<totfact> 0.12447335E+06</totfact>
</mgrwt>
</event>
<event>
 5    1  0.1228105E-006  0.2000102E+02  0.7818608E-02  0.1745308E+00
          4   -1    0    0  501    0  0.00000000000E+00  0.00000000000E+00  0.12274812734E+02  0.12356675429E+02  0.14200000000E+01 0.  1.
         -4   -1    0    0    0  501 -0.00000000000E+00 -0.00000000000E+00 -0.79757304343E+01  0.81011527550E+01  0.14200000000E+01 0. -1.
       1023    2    1    2    0    0  0.00000000000E+00  0.00000000000E+00  0.42990823002E+01  0.20457828184E+02  0.20001015609E+02 0.  0.
        -11    1    3    3    0    0  0.92205448853E+01  0.38717297573E+01  0.21880411436E+01  0.10237004621E+02  0.51100000000E-03 0. -1.
         11    1    3    3    0    0 -0.92205448853E+01 -0.38717297573E+01  0.21110411566E+01  0.10220823564E+02  0.51100000000E-03 0.  1.
<mgrwt>
<rscale>  0 0.20001016E+02</rscale>
<asrwt>0</asrwt>
<pdfrwt beam="1">  1        4 0.19043777E-02 0.20001016E+02</pdfrwt>
<pdfrwt beam="2">  1       -4 0.12429805E-02 0.20001016E+02</pdfrwt>
<totfact> 0.12985474E+06</totfact>
</mgrwt>
</event>
<event>
 4    1  0.1154861E-006  0.2014745E+02  0.7818608E-02  0.1742412E+00
         -4   -1    0    0    0  501 -0.00000000000E+00  0.00000000000E+00  0.22120044867E+01  0.26285668812E+01  0.14200000000E+01 0. -1.
          4   -1    0    0  501    0  0.00000000000E+00 -0.00000000000E+00 -0.41499144542E+02  0.41523431912E+02  0.14200000000E+01 0.  1.
        -11    1    1    2    0    0 -0.65274887957E+01 -0.76409186906E+01 -0.21174693502E+02  0.23438417045E+02  0.51100000000E-03 0.  1.
         11    1    1    2    0    0  0.65274887957E+01  0.76409186906E+01 -0.18112446554E+02  0.20713581748E+02  0.51100000000E-03 0. -1.
<mgrwt>
<rscale>  0 0.20147447E+02</rscale>
<asrwt>0</asrwt>
<pdfrwt beam="2">  1        4 0.64183948E-02 0.20147447E+02</pdfrwt>
<pdfrwt beam="1">  1       -4 0.37421993E-03 0.20147447E+02</pdfrwt>
<totfact> 0.11599794E+06</totfact>
</mgrwt>
</event>
<event>
 5    1  0.1154861E-006  0.2000058E+02  0.7818608E-02  0.1745317E+00
         -4   -1    0    0    0  501 -0.00000000000E+00  0.00000000000E+00  0.14238030506E+01  0.20108742196E+01  0.14200000000E+01 0.  1.
          4   -1    0    0  501    0  0.00000000000E+00 -0.00000000000E+00 -0.57635671728E+02  0.57653161713E+02  0.14200000000E+01 0. -1.
       1023    2    1    2    0    0  0.00000000000E+00  0.00000000000E+00 -0.56211868677E+02  0.59664035933E+02  0.20000575082E+02 0.  0.
        -11    1    3    3    0    0 -0.10301613717E+01 -0.99470347247E+01 -0.28201131327E+02  0.29921706847E+02  0.51100000000E-03 0.  1.
         11    1    3    3    0    0  0.10301613717E+01  0.99470347247E+01 -0.28010737350E+02  0.29742329086E+02  0.51100000000E-03 0. -1.
<mgrwt>
<rscale>  0 0.20000575E+02</rscale>
<asrwt>0</asrwt>
<pdfrwt beam="2">  1        4 0.89135296E-02 0.20000575E+02</pdfrwt>
<pdfrwt beam="1">  1       -4 0.26555137E-03 0.20000575E+02</pdfrwt>
<totfact> 0.11131129E+06</totfact>
</mgrwt>
</event>
<event>
 5    1  0.1154861E-006  0.2000198E+02  0.7818608E-02  0.1745289E+00
         -4   -1    0    0    0  501 -0.00000000000E+00  0.00000000000E+00  0.35082660448E+02  0.35111386530E+02  0.14200000000E+01 0.  1.
          4   -1    0    0  501    0  0.00000000000E+00 -0.00000000000E+00 -0.26423142773E+01  0.29997041087E+01  0.14200000000E+01 0. -1.
       1023    2    1    2    0    0  0.00000000000E+00  0.00000000000E+00  0.32440346170E+02  0.38111090639E+02  0.20001979153E+02 0.  0.
        -11    1    3    3    0    0 -0.99941440981E+01 -0.36989658957E+00  0.16233980034E+02  0.19067297862E+02  0.51100000000E-03 0. -1.
         11    1    3    3    0    0  0.99941440981E+01  0.36989658957E+00  0.16206366136E+02  0.19043792777E+02  0.51100000000E-03 0.  1.
<mgrwt>
<rscale>  0 0.20001979E+02</rscale>
<asrwt>0</asrwt>
<pdfrwt beam="2">  1        4 0.43621109E-03 0.20001979E+02</pdfrwt>
<pdfrwt beam="1">  1       -4 0.54270339E-02 0.20001979E+02</pdfrwt>
<totfact> 0.12049036E+06</totfact>
</mgrwt>
</event>
<event>
 5    1  0.1154861E-006  0.2000721E+02  0.7818608E-02  0.1745185E+00
          4   -1    0    0  501    0  0.00000000000E+00  0.00000000000E+00  0.78883448388E+01  0.80151347022E+01  0.14200000000E+01 0. -1.
         -4   -1    0    0    0  501 -0.00000000000E+00 -0.00000000000E+00 -0.12417359160E+02  0.12498288223E+02  0.14200000000E+01 0.  1.
       1023    2    1    2    0    0  0.00000000000E+00  0.00000000000E+00 -0.45290143214E+01  0.20513422926E+02  0.20007212434E+02 0.  0.
        -11    1    3    3    0    0  0.10000967138E+02 -0.22419623612E+00 -0.22129411189E+01  0.10245326559E+02  0.51100000000E-03 0.  1.
         11    1    3    3    0    0 -0.10000967138E+02  0.22419623612E+00 -0.23160732025E+01  0.10268096366E+02  0.51100000000E-03 0. -1.
<mgrwt>
<rscale>  0 0.20007212E+02</rscale>
<asrwt>0</asrwt>
<pdfrwt beam="1">  1        4 0.12295699E-02 0.20007212E+02</pdfrwt>
<pdfrwt beam="2">  1       -4 0.19263413E-02 0.20007212E+02</pdfrwt>
<totfact> 0.12973976E+06</totfact>
</mgrwt>
</event>
<event>
 5    1  0.1154861E-006  0.2000113E+02  0.7818608E-02  0.1745306E+00
          4   -1    0    0  501    0  0.00000000000E+00  0.00000000000E+00  0.28621339490E+02  0.28656543305E+02  0.14200000000E+01 0.  1.
         -4   -1    0    0    0  501 -0.00000000000E+00 -0.00000000000E+00 -0.33110227678E+01  0.36026756402E+01  0.14200000000E+01 0. -1.
       1023    2    1    2    0    0  0.00000000000E+00  0.00000000000E+00  0.25310316722E+02  0.32259218945E+02  0.20001126828E+02 0.  0.
        -11    1    3    3    0    0 -0.99917698610E+01 -0.41868362112E+00  0.12618827405E+02  0.16101104504E+02  0.51100000000E-03 0.  1.
         11    1    3    3    0    0  0.99917698610E+01  0.41868362112E+00  0.12691489317E+02  0.16158114440E+02  0.51100000000E-03 0. -1.
<mgrwt>
<rscale>  0 0.20001127E+02</rscale>
<asrwt>0</asrwt>
<pdfrwt beam="1">  1        4 0.44284260E-02 0.20001127E+02</pdfrwt>
<pdfrwt beam="2">  1       -4 0.53453092E-03 0.20001127E+02</pdfrwt>
<totfact> 0.12337835E+06</totfact>
</mgrwt>
</event>
<event>
 5    1  0.1154861E-006  0.2000396E+02  0.7818608E-02  0.1745249E+00
         -4   -1    0    0    0  501 -0.00000000000E+00  0.00000000000E+00  0.39119437064E+02  0.39145200935E+02  0.14200000000E+01 0. -1.
          4   -1    0    0  501    0  0.00000000000E+00 -0.00000000000E+00 -0.23314144700E+01  0.27298156405E+01  0.14200000000E+01 0.  1.
       1023    2    1    2    0    0  0.00000000000E+00  0.00000000000E+00  0.36788022594E+02  0.41875016575E+02  0.20003959778E+02 0.  0.
        -11    1    3    3    0    0  0.30184616515E+01  0.95342836732E+01  0.18056954678E+02  0.20641397443E+02  0.51100000000E-03 0.  1.
         11    1    3    3    0    0 -0.30184616515E+01 -0.95342836732E+01  0.18731067916E+02  0.21233619132E+02  0.51100000000E-03 0. -1.
<mgrwt>
<rscale>  0 0.20003960E+02</rscale>
<asrwt>0</asrwt>
<pdfrwt beam="2">  1        4 0.39130727E-03 0.20003960E+02</pdfrwt>
<pdfrwt beam="1">  1       -4 0.60510024E-02 0.20003960E+02</pdfrwt>
<totfact> 0.11871466E+06</totfact>
</mgrwt>
</event>
<event>
 5    1  0.1154861E-006  0.2000155E+02  0.7818608E-02  0.1745297E+00
          4   -1    0    0  501    0  0.00000000000E+00  0.00000000000E+00  0.31853887338E+02  0.31885522398E+02  0.14200000000E+01 0.  1.
         -4   -1    0    0    0  501 -0.00000000000E+00 -0.00000000000E+00 -0.29442780637E+01  0.32688183364E+01  0.14200000000E+01 0. -1.
       1023    2    1    2    0    0  0.00000000000E+00  0.00000000000E+00  0.28909609275E+02  0.35154340734E+02  0.20001554040E+02 0.  0.
        -11    1    3    3    0    0  0.81433671629E+01 -0.58052658633E+01  0.14455686192E+02  0.17577895325E+02  0.51100000000E-03 0.  1.
         11    1    3    3    0    0 -0.81433671629E+01  0.58052658633E+01  0.14453923083E+02  0.17576445409E+02  0.51100000000E-03 0. -1.
<mgrwt>
<rscale>  0 0.20001554E+02</rscale>
<asrwt>0</asrwt>
<pdfrwt beam="1">  1        4 0.49279962E-02 0.20001554E+02</pdfrwt>
<pdfrwt beam="2">  1       -4 0.48036395E-03 0.20001554E+02</pdfrwt>
<totfact> 0.12192470E+06</totfact>
</mgrwt>
</event>
<event>
 4    1  0.1154861E-006  0.2002114E+02  0.7818608E-02  0.1744908E+00
          4   -1    0    0  501    0  0.00000000000E+00  0.00000000000E+00  0.22584930032E+02  0.22629526388E+02  0.14200000000E+01 0. -1.
         -4   -1    0    0    0  501 -0.00000000000E+00 -0.00000000000E+00 -0.42731291003E+01  0.45028915497E+01  0.14200000000E+01 0.  1.
        -11    1    1    2    0    0 -0.16544723910E+01 -0.98695885671E+01  0.95026137392E+01  0.13800207445E+02  0.51100000000E-03 0.  1.
         11    1    1    2    0    0  0.16544723910E+01  0.98695885671E+01  0.88091871920E+01  0.13332210493E+02  0.51100000000E-03 0. -1.
<mgrwt>
<rscale>  0 0.20021140E+02</rscale>
<asrwt>0</asrwt>
<pdfrwt beam="1">  1        4 0.34957092E-02 0.20021140E+02</pdfrwt>
<pdfrwt beam="2">  1       -4 0.67850899E-03 0.20021140E+02</pdfrwt>
<totfact> 0.12581238E+06</totfact>
</mgrwt>
</event>
<event>
 5    1  0.1154861E-006  0.2000168E+02  0.7818608E-02  0.1745295E+00
         -4   -1    0    0    0  501 -0.00000000000E+00  0.00000000000E+00  0.81412180263E+00  0.16368244590E+01  0.14200000000E+01 0.  1.
          4   -1    0    0  501    0  0.00000000000E+00 -0.00000000000E+00 -0.80783827419E+02  0.80796306676E+02  0.14200000000E+01 0. -1.
       1023    2    1    2    0    0  0.00000000000E+00  0.00000000000E+00 -0.79969705616E+02  0.82433131135E+02  0.20001682237E+02 0.  0.
        -11    1    3    3    0    0  0.26345121272E+00  0.99973405260E+01 -0.39884012303E+02  0.41118738573E+02  0.51100000000E-03 0. -1.
         11    1    3    3    0    0 -0.26345121272E+00 -0.99973405260E+01 -0.40085693313E+02  0.41314392562E+02  0.51100000000E-03 0.  1.
<mgrwt>
<rscale>  0 0.20001682E+02</rscale>
<asrwt>0</asrwt>
<pdfrwt beam="2">  1        4 0.12492522E-01 0.20001682E+02</pdfrwt>
<pdfrwt beam="1">  1       -4 0.18949433E-03 0.20001682E+02</pdfrwt>
<totfact> 0.10330605E+06</totfact>
</mgrwt>
</event>
<event>
 5    1  0.1154861E-006  0.2000021E+02  0.7818608E-02  0.1745324E+00
          4   -1    0    0  501    0  0.00000000000E+00  0.00000000000E+00  0.33856077641E+01  0.36713403455E+01  0.14200000000E+01 0.  1.
         -4   -1    0    0    0  501 -0.00000000000E+00 -0.00000000000E+00 -0.28037034797E+02  0.28072971346E+02  0.14200000000E+01 0. -1.
       1023    2    1    2    0    0  0.00000000000E+00  0.00000000000E+00 -0.24651427033E+02  0.31744311692E+02  0.20000211750E+02 0.  0.
        -11    1    3    3    0    0 -0.58617453769E-01 -0.99998688882E+01 -0.12268410191E+02  0.15827656259E+02  0.51100000000E-03 0. -1.
         11    1    3    3    0    0  0.58617453769E-01  0.99998688882E+01 -0.12383016842E+02  0.15916655433E+02  0.51100000000E-03 0.  1.
<mgrwt>
<rscale>  0 0.20000212E+02</rscale>
<asrwt>0</asrwt>
<pdfrwt beam="1">  1        4 0.54560653E-03 0.20000212E+02</pdfrwt>
<pdfrwt beam="2">  1       -4 0.43381336E-02 0.20000212E+02</pdfrwt>
<totfact> 0.12365277E+06</totfact>
</mgrwt>
</event>
<event>
 5    1  0.1154861E-006  0.2000027E+02  0.7818608E-02  0.1745323E+00
         -4   -1    0    0    0  501 -0.00000000000E+00  0.00000000000E+00  0.10138995372E+02  0.10237950340E+02  0.14200000000E+01 0. -1.
          4   -1    0    0  501    0  0.00000000000E+00 -0.00000000000E+00 -0.96641868609E+01  0.97679530959E+01  0.14200000000E+01 0.  1.
       1023    2    1    2    0    0  0.00000000000E+00  0.00000000000E+00  0.47480851123E+00  0.20005903435E+02  0.20000268227E+02 0.  0.
        -11    1    3    3    0    0  0.34350149442E+01 -0.93916279094E+01  0.26348018013E+00  0.10003570589E+02  0.51100000000E-03 0.  1.
         11    1    3    3    0    0 -0.34350149442E+01  0.93916279094E+01  0.21132833110E+00  0.10002332847E+02  0.51100000000E-03 0. -1.
<mgrwt>
<rscale>  0 0.20000268E+02</rscale>
<asrwt>0</asrwt>
<pdfrwt beam="2">  1        4 0.15023919E-02 0.20000268E+02</pdfrwt>
<pdfrwt beam="1">  1       -4 0.15754394E-02 0.20000268E+02</pdfrwt>
<totfact> 0.13013338E+06</totfact>
</mgrwt>
</event>
<event>
 5    1  0.1160513E-006  0.2000208E+02  0.7818608E-02  0.1745287E+00
          4   -1    0    0  501    0  0.00000000000E+00  0.00000000000E+00  0.10151173079E+02  0.10250010482E+02  0.14200000000E+01 0.  1.
         -4   -1    0    0    0  501 -0.00000000000E+00 -0.00000000000E+00 -0.96543713005E+01  0.97582419117E+01  0.14200000000E+01 0. -1.
       1023    2    1    2    0    0  0.00000000000E+00  0.00000000000E+00  0.49680177835E+00  0.20008252394E+02  0.20002083687E+02 0.  0.
        -11    1    3    3    0    0  0.23442471680E+01 -0.97222125521E+01  0.31107805811E+00  0.10005682461E+02  0.51100000000E-03 0. -1.
         11    1    3    3    0    0 -0.23442471680E+01  0.97222125521E+01  0.18572372024E+00  0.10002569932E+02  0.51100000000E-03 0.  1.
<mgrwt>
<rscale>  0 0.20002084E+02</rscale>
<asrwt>0</asrwt>
<pdfrwt beam="1">  1        4 0.15773119E-02 0.20002084E+02</pdfrwt>
<pdfrwt beam="2">  1       -4 0.15008808E-02 0.20002084E+02</pdfrwt>
<totfact> 0.13010787E+06</totfact>
</mgrwt>
</event>
<event>
 5    1  0.1154861E-006  0.2000010E+02  0.7818608E-02  0.1745326E+00
         -4   -1    0    0    0  501 -0.00000000000E+00  0.00000000000E+00  0.30614787284E+01  0.33747669556E+01  0.14200000000E+01 0. -1.
          4   -1    0    0  501    0  0.00000000000E+00 -0.00000000000E+00 -0.30743858399E+02  0.30776634469E+02  0.14200000000E+01 0.  1.
       1023    2    1    2    0    0  0.00000000000E+00  0.00000000000E+00 -0.27682379671E+02  0.34151401425E+02  0.20000101876E+02 0.  0.
        -11    1    3    3    0    0 -0.88947034409E+01 -0.45700249982E+01 -0.13820933946E+02  0.17059281731E+02  0.51100000000E-03 0.  1.
         11    1    3    3    0    0  0.88947034409E+01  0.45700249982E+01 -0.13861445725E+02  0.17092119694E+02  0.51100000000E-03 0. -1.
<mgrwt>
<rscale>  0 0.20000102E+02</rscale>
<asrwt>0</asrwt>
<pdfrwt beam="2">  1        4 0.47564445E-02 0.20000102E+02</pdfrwt>
<pdfrwt beam="1">  1       -4 0.49761708E-03 0.20000102E+02</pdfrwt>
<totfact> 0.12243880E+06</totfact>
</mgrwt>
</event>
<event>
 5    1  0.1154861E-006  0.2000369E+02  0.7818608E-02  0.1745255E+00
          4   -1    0    0  501    0  0.00000000000E+00  0.00000000000E+00  0.32429477815E+02  0.32460551927E+02  0.14200000000E+01 0.  1.
         -4   -1    0    0    0  501 -0.00000000000E+00 -0.00000000000E+00 -0.28869577561E+01  0.32172853597E+01  0.14200000000E+01 0. -1.
       1023    2    1    2    0    0  0.00000000000E+00  0.00000000000E+00  0.29542520059E+02  0.35677837286E+02  0.20003689209E+02 0.  0.
        -11    1    3    3    0    0 -0.87255934872E+01  0.48879172824E+01  0.14942130266E+02  0.17980405285E+02  0.51100000000E-03 0. -1.
         11    1    3    3    0    0  0.87255934872E+01 -0.48879172824E+01  0.14600389793E+02  0.17697432001E+02  0.51100000000E-03 0.  1.
<mgrwt>
<rscale>  0 0.20003689E+02</rscale>
<asrwt>0</asrwt>
<pdfrwt beam="1">  1        4 0.50169507E-02 0.20003689E+02</pdfrwt>
<pdfrwt beam="2">  1       -4 0.47194747E-03 0.20003689E+02</pdfrwt>
<totfact> 0.12164177E+06</totfact>
</mgrwt>
</event>
<event>
 5    1  0.1168015E-006  0.2000094E+02  0.7818608E-02  0.1745309E+00
         -4   -1    0    0    0  501 -0.00000000000E+00  0.00000000000E+00  0.26656000089E+02  0.26693795922E+02  0.14200000000E+01 0. -1.
          4   -1    0    0  501    0  0.00000000000E+00 -0.00000000000E+00 -0.35754741950E+01  0.38471308424E+01  0.14200000000E+01 0.  1.
       1023    2    1    2    0    0  0.00000000000E+00  0.00000000000E+00  0.23080525894E+02  0.30540926765E+02  0.20000938281E+02 0.  0.
        -11    1    3    3    0    0  0.68623271095E+01  0.72744392746E+01  0.11570132696E+02  0.15293036683E+02  0.51100000000E-03 0. -1.
         11    1    3    3    0    0 -0.68623271095E+01 -0.72744392746E+01  0.11510393198E+02  0.15247890082E+02  0.51100000000E-03 0.  1.
<mgrwt>
<rscale>  0 0.20000938E+02</rscale>
<asrwt>0</asrwt>
<pdfrwt beam="2">  1        4 0.57387696E-03 0.20000938E+02</pdfrwt>
<pdfrwt beam="1">  1       -4 0.41247274E-02 0.20000938E+02</pdfrwt>
<totfact> 0.12426399E+06</totfact>
</mgrwt>
</event>
<event>
 5    1  0.1154861E-006  0.2000423E+02  0.7818608E-02  0.1745244E+00
          4   -1    0    0  501    0  0.00000000000E+00  0.00000000000E+00  0.74050849449E+01  0.75400055068E+01  0.14200000000E+01 0.  1.
         -4   -1    0    0    0  501 -0.00000000000E+00 -0.00000000000E+00 -0.13214682636E+02  0.13290757584E+02  0.14200000000E+01 0. -1.
       1023    2    1    2    0    0  0.00000000000E+00  0.00000000000E+00 -0.58095976910E+01  0.20830763091E+02  0.20004231193E+02 0.  0.
        -11    1    3    3    0    0  0.99490503164E+01  0.10214593023E+01 -0.30337493227E+01  0.10451345201E+02  0.51100000000E-03 0.  1.
         11    1    3    3    0    0 -0.99490503164E+01 -0.10214593023E+01 -0.27758483683E+01  0.10379417890E+02  0.51100000000E-03 0. -1.
<mgrwt>
<rscale>  0 0.20004231E+02</rscale>
<asrwt>0</asrwt>
<pdfrwt beam="1">  1        4 0.11554743E-02 0.20004231E+02</pdfrwt>
<pdfrwt beam="2">  1       -4 0.20492585E-02 0.20004231E+02</pdfrwt>
<totfact> 0.12959160E+06</totfact>
</mgrwt>
</event>
<event>
 5    1  0.1197529E-006  0.2000208E+02  0.7818608E-02  0.1745287E+00
         -4   -1    0    0    0  501 -0.00000000000E+00  0.00000000000E+00  0.25669254859E+02  0.25708501416E+02  0.14200000000E+01 0. -1.
          4   -1    0    0  501    0  0.00000000000E+00 -0.00000000000E+00 -0.37234053871E+01  0.39849902982E+01  0.14200000000E+01 0.  1.
       1023    2    1    2    0    0  0.00000000000E+00  0.00000000000E+00  0.21945849472E+02  0.29693491714E+02  0.20002078419E+02 0.  0.
        -11    1    3    3    0    0 -0.12361952841E+01 -0.99235203451E+01  0.11162747193E+02  0.14987039733E+02  0.51100000000E-03 0. -1.
         11    1    3    3    0    0  0.12361952841E+01  0.99235203451E+01  0.10783102280E+02  0.14706451980E+02  0.51100000000E-03 0.  1.
<mgrwt>
<rscale>  0 0.20002078E+02</rscale>
<asrwt>0</asrwt>
<pdfrwt beam="2">  1        4 0.59597247E-03 0.20002078E+02</pdfrwt>
<pdfrwt beam="1">  1       -4 0.39722571E-02 0.20002078E+02</pdfrwt>
<totfact> 0.12469147E+06</totfact>
</mgrwt>
</event>
<event>
 5    1  0.1154861E-006  0.2000043E+02  0.7818608E-02  0.1745320E+00
         -4   -1    0    0    0  501 -0.00000000000E+00  0.00000000000E+00  0.53298898705E+02  0.53317811313E+02  0.14200000000E+01 0.  1.
          4   -1    0    0  501    0  0.00000000000E+00 -0.00000000000E+00 -0.15855380642E+01  0.21284574116E+01  0.14200000000E+01 0. -1.
       1023    2    1    2    0    0  0.00000000000E+00  0.00000000000E+00  0.51713360641E+02  0.55446268724E+02  0.20000426162E+02 0.  0.
        -11    1    3    3    0    0 -0.78106044818E+00  0.99696400909E+01  0.25795789004E+02  0.27666342541E+02  0.51100000000E-03 0.  1.
         11    1    3    3    0    0  0.78106044818E+00 -0.99696400909E+01  0.25917571637E+02  0.27779926184E+02  0.51100000000E-03 0. -1.
<mgrwt>
<rscale>  0 0.20000426E+02</rscale>
<asrwt>0</asrwt>
<pdfrwt beam="2">  1        4 0.28714680E-03 0.20000426E+02</pdfrwt>
<pdfrwt beam="1">  1       -4 0.82430477E-02 0.20000426E+02</pdfrwt>
<totfact> 0.11296565E+06</totfact>
</mgrwt>
</event>
<event>
 5    1  0.1154861E-006  0.2000123E+02  0.7818608E-02  0.1745304E+00
         -4   -1    0    0    0  501 -0.00000000000E+00  0.00000000000E+00  0.12581573101E+01  0.18971978855E+01  0.14200000000E+01 0.  1.
          4   -1    0    0  501    0  0.00000000000E+00 -0.00000000000E+00 -0.62743428217E+02  0.62759494775E+02  0.14200000000E+01 0. -1.
       1023    2    1    2    0    0  0.00000000000E+00  0.00000000000E+00 -0.61485270907E+02  0.64656692660E+02  0.20001234145E+02 0.  0.
        -11    1    3    3    0    0  0.86181991104E+01 -0.50731287859E+01 -0.30585928322E+02  0.32179325710E+02  0.51100000000E-03 0. -1.
         11    1    3    3    0    0 -0.86181991104E+01  0.50731287859E+01 -0.30899342585E+02  0.32477366950E+02  0.51100000000E-03 0.  1.
<mgrwt>
<rscale>  0 0.20001234E+02</rscale>
<asrwt>0</asrwt>
<pdfrwt beam="2">  1        4 0.97032260E-02 0.20001234E+02</pdfrwt>
<pdfrwt beam="1">  1       -4 0.24395557E-03 0.20001234E+02</pdfrwt>
<totfact> 0.10942256E+06</totfact>
</mgrwt>
</event>
<event>
 5    1  0.1193358E-006  0.2000098E+02  0.7818608E-02  0.1745309E+00
          4   -1    0    0  501    0  0.00000000000E+00  0.00000000000E+00  0.72303635537E+01  0.73684840449E+01  0.14200000000E+01 0. -1.
         -4   -1    0    0    0  501 -0.00000000000E+00 -0.00000000000E+00 -0.13525410110E+02  0.13599747007E+02  0.14200000000E+01 0.  1.
       1023    2    1    2    0    0  0.00000000000E+00  0.00000000000E+00 -0.62950465564E+01  0.20968231052E+02  0.20000977533E+02 0.  0.
        -11    1    3    3    0    0  0.91319450150E+00 -0.99583503136E+01 -0.30591237844E+01  0.10457576381E+02  0.51100000000E-03 0.  1.
         11    1    3    3    0    0 -0.91319450150E+00  0.99583503136E+01 -0.32359227720E+01  0.10510654671E+02  0.51100000000E-03 0. -1.
<mgrwt>
<rscale>  0 0.20000978E+02</rscale>
<asrwt>0</asrwt>
<pdfrwt beam="1">  1        4 0.11287065E-02 0.20000978E+02</pdfrwt>
<pdfrwt beam="2">  1       -4 0.20971752E-02 0.20000978E+02</pdfrwt>
<totfact> 0.12955334E+06</totfact>
</mgrwt>
</event>
<event>
 5    1  0.1182034E-006  0.2000067E+02  0.7818608E-02  0.1745315E+00
          4   -1    0    0  501    0  0.00000000000E+00  0.00000000000E+00  0.46500710784E+01  0.48620531706E+01  0.14200000000E+01 0. -1.
         -4   -1    0    0    0  501 -0.00000000000E+00 -0.00000000000E+00 -0.20790460044E+02  0.20838897016E+02  0.14200000000E+01 0.  1.
       1023    2    1    2    0    0  0.00000000000E+00  0.00000000000E+00 -0.16140388966E+02  0.25700950187E+02  0.20000667102E+02 0.  0.
        -11    1    3    3    0    0 -0.46091262370E+01 -0.88747696091E+01 -0.80277583828E+01  0.12823824905E+02  0.51100000000E-03 0. -1.
         11    1    3    3    0    0  0.46091262370E+01  0.88747696091E+01 -0.81126305830E+01  0.12877125282E+02  0.51100000000E-03 0.  1.
<mgrwt>
<rscale>  0 0.20000667E+02</rscale>
<asrwt>0</asrwt>
<pdfrwt beam="1">  1        4 0.73542780E-03 0.20000667E+02</pdfrwt>
<pdfrwt beam="2">  1       -4 0.32185645E-02 0.20000667E+02</pdfrwt>
<totfact> 0.12685802E+06</totfact>
</mgrwt>
</event>
<event>
 4    1  0.1154861E-006  0.2001861E+02  0.7818608E-02  0.1744958E+00
          4   -1    0    0  501    0  0.00000000000E+00  0.00000000000E+00  0.26189681619E+02  0.26228149445E+02  0.14200000000E+01 0.  1.
         -4   -1    0    0    0  501 -0.00000000000E+00 -0.00000000000E+00 -0.36508156090E+01  0.39172508996E+01  0.14200000000E+01 0. -1.
        -11    1    1    2    0    0  0.57792952288E+01 -0.81697478861E+01  0.10964012105E+02  0.14844345576E+02  0.51100000000E-03 0.  1.
         11    1    1    2    0    0 -0.57792952288E+01  0.81697478861E+01  0.11574853905E+02  0.15301054769E+02  0.51100000000E-03 0. -1.
<mgrwt>
<rscale>  0 0.20018608E+02</rscale>
<asrwt>0</asrwt>
<pdfrwt beam="1">  1        4 0.40526358E-02 0.20018608E+02</pdfrwt>
<pdfrwt beam="2">  1       -4 0.58511804E-03 0.20018608E+02</pdfrwt>
<totfact> 0.12424651E+06</totfact>
</mgrwt>
</event>
<event>
 5    1  0.1154861E-006  0.2000096E+02  0.7818608E-02  0.1745309E+00
         -4   -1    0    0    0  501 -0.00000000000E+00  0.00000000000E+00  0.13560652150E+01  0.19634950643E+01  0.14200000000E+01 0. -1.
          4   -1    0    0  501    0  0.00000000000E+00 -0.00000000000E+00 -0.59637307824E+02  0.59654210954E+02  0.14200000000E+01 0.  1.
       1023    2    1    2    0    0  0.00000000000E+00  0.00000000000E+00 -0.58281242609E+02  0.61617706018E+02  0.20000961348E+02 0.  0.
        -11    1    3    3    0    0 -0.95456771409E+01  0.29809164544E+01 -0.28950750207E+02  0.30629263014E+02  0.51100000000E-03 0. -1.
         11    1    3    3    0    0  0.95456771409E+01 -0.29809164544E+01 -0.29330492403E+02  0.30988443004E+02  0.51100000000E-03 0.  1.
<mgrwt>
<rscale>  0 0.20000961E+02</rscale>
<asrwt>0</asrwt>
<pdfrwt beam="2">  1        4 0.92229944E-02 0.20000961E+02</pdfrwt>
<pdfrwt beam="1">  1       -4 0.25665108E-03 0.20000961E+02</pdfrwt>
<totfact> 0.11056111E+06</totfact>
</mgrwt>
</event>
<event>
 4    1  0.1154861E-006  0.2008143E+02  0.7818608E-02  0.1743714E+00
          4   -1    0    0  501    0  0.00000000000E+00  0.00000000000E+00  0.13622750606E+02  0.13696559205E+02  0.14200000000E+01 0. -1.
         -4   -1    0    0    0  501 -0.00000000000E+00 -0.00000000000E+00 -0.72375775973E+01  0.73755629939E+01  0.14200000000E+01 0.  1.
        -11    1    1    2    0    0 -0.89305658545E+01  0.45838008506E+01  0.34266089111E+01  0.10606973443E+02  0.51100000000E-03 0.  1.
         11    1    1    2    0    0  0.89305658545E+01 -0.45838008506E+01  0.29585640970E+01  0.10465148757E+02  0.51100000000E-03 0. -1.
<mgrwt>
<rscale>  0 0.20081432E+02</rscale>
<asrwt>0</asrwt>
<pdfrwt beam="1">  1        4 0.21120996E-02 0.20081432E+02</pdfrwt>
<pdfrwt beam="2">  1       -4 0.11297653E-02 0.20081432E+02</pdfrwt>
<totfact> 0.12843524E+06</totfact>
</mgrwt>
</event>
<event>
 5    1  0.1154861E-006  0.2000084E+02  0.7818608E-02  0.1745311E+00
         -4   -1    0    0    0  501 -0.00000000000E+00  0.00000000000E+00  0.56215155484E+02  0.56233087289E+02  0.14200000000E+01 0. -1.
          4   -1    0    0  501    0  0.00000000000E+00 -0.00000000000E+00 -0.14744733333E+01  0.20470641443E+01  0.14200000000E+01 0.  1.
       1023    2    1    2    0    0  0.00000000000E+00  0.00000000000E+00  0.54740682150E+02  0.58280151433E+02  0.20000844202E+02 0.  0.
        -11    1    3    3    0    0  0.68360043338E+01  0.72986167080E+01  0.27114967113E+02  0.28900211122E+02  0.51100000000E-03 0. -1.
         11    1    3    3    0    0 -0.68360043338E+01 -0.72986167080E+01  0.27625715037E+02  0.29379940311E+02  0.51100000000E-03 0.  1.
<mgrwt>
<rscale>  0 0.20000844E+02</rscale>
<asrwt>0</asrwt>
<pdfrwt beam="2">  1        4 0.27226687E-03 0.20000844E+02</pdfrwt>
<pdfrwt beam="1">  1       -4 0.86939103E-02 0.20000844E+02</pdfrwt>
<totfact> 0.11184367E+06</totfact>
</mgrwt>
</event>
<event>
 5    1  0.1154861E-006  0.2000202E+02  0.7818608E-02  0.1745288E+00
         -4   -1    0    0    0  501 -0.00000000000E+00  0.00000000000E+00  0.25900112009E+01  0.29537362815E+01  0.14200000000E+01 0.  1.
          4   -1    0    0  501    0  0.00000000000E+00 -0.00000000000E+00 -0.35705188770E+02  0.35733414406E+02  0.14200000000E+01 0. -1.
       1023    2    1    2    0    0  0.00000000000E+00  0.00000000000E+00 -0.33115177569E+02  0.38687150687E+02  0.20002015970E+02 0.  0.
        -11    1    3    3    0    0  0.25222484848E+01 -0.96776795922E+01 -0.16498264904E+02  0.19292795671E+02  0.51100000000E-03 0. -1.
         11    1    3    3    0    0 -0.25222484848E+01  0.96776795922E+01 -0.16616912665E+02  0.19394355016E+02  0.51100000000E-03 0.  1.
<mgrwt>
<rscale>  0 0.20002016E+02</rscale>
<asrwt>0</asrwt>
<pdfrwt beam="2">  1        4 0.55232557E-02 0.20002016E+02</pdfrwt>
<pdfrwt beam="1">  1       -4 0.42861334E-03 0.20002016E+02</pdfrwt>
<totfact> 0.12021705E+06</totfact>
</mgrwt>
</event>
<event>
 5    1  0.1154861E-006  0.2000067E+02  0.7818608E-02  0.1745315E+00
         -4   -1    0    0    0  501 -0.00000000000E+00  0.00000000000E+00  0.21226015462E+01  0.25537888174E+01  0.14200000000E+01 0. -1.
          4   -1    0    0  501    0  0.00000000000E+00 -0.00000000000E+00 -0.42326705568E+02  0.42350518347E+02  0.14200000000E+01 0.  1.
       1023    2    1    2    0    0  0.00000000000E+00  0.00000000000E+00 -0.40204104022E+02  0.44904307165E+02  0.20000670531E+02 0.  0.
        -11    1    3    3    0    0  0.93735424125E+01 -0.34841492710E+01 -0.20246015458E+02  0.22581048153E+02  0.51100000000E-03 0. -1.
         11    1    3    3    0    0 -0.93735424125E+01  0.34841492710E+01 -0.19958088564E+02  0.22323259011E+02  0.51100000000E-03 0.  1.
<mgrwt>
<rscale>  0 0.20000671E+02</rscale>
<asrwt>0</asrwt>
<pdfrwt beam="2">  1        4 0.65468003E-02 0.20000671E+02</pdfrwt>
<pdfrwt beam="1">  1       -4 0.36155412E-03 0.20000671E+02</pdfrwt>
<totfact> 0.11739246E+06</totfact>
</mgrwt>
</event>
<event>
 4    1  0.1154861E-006  0.2002937E+02  0.7818608E-02  0.1744745E+00
          4   -1    0    0  501    0  0.00000000000E+00  0.00000000000E+00  0.14386384142E+02  0.14456294432E+02  0.14200000000E+01 0. -1.
         -4   -1    0    0    0  501 -0.00000000000E+00 -0.00000000000E+00 -0.68112395451E+01  0.69576852574E+01  0.14200000000E+01 0.  1.
        -11    1    1    2    0    0 -0.48202604079E+01 -0.87773708172E+01  0.39260584975E+01  0.10755979009E+02  0.51100000000E-03 0. -1.
         11    1    1    2    0    0  0.48202604079E+01  0.87773708172E+01  0.36490860998E+01  0.10658000680E+02  0.51100000000E-03 0.  1.
<mgrwt>
<rscale>  0 0.20029371E+02</rscale>
<asrwt>0</asrwt>
<pdfrwt beam="1">  1        4 0.22299326E-02 0.20029371E+02</pdfrwt>
<pdfrwt beam="2">  1       -4 0.10645258E-02 0.20029371E+02</pdfrwt>
<totfact> 0.12891745E+06</totfact>
</mgrwt>
</event>
<event>
 5    1  0.1154861E-006  0.2000059E+02  0.7818608E-02  0.1745316E+00
         -4   -1    0    0    0  501 -0.00000000000E+00  0.00000000000E+00  0.11093538750E+02  0.11184051233E+02  0.14200000000E+01 0.  1.
          4   -1    0    0  501    0  0.00000000000E+00 -0.00000000000E+00 -0.88306995173E+01  0.89441407617E+01  0.14200000000E+01 0. -1.
       1023    2    1    2    0    0  0.00000000000E+00  0.00000000000E+00  0.22628392324E+01  0.20128191995E+02  0.20000591781E+02 0.  0.
        -11    1    3    3    0    0 -0.99115176219E+01 -0.13292324555E+01  0.11016139840E+01  0.10060745207E+02  0.51100000000E-03 0.  1.
         11    1    3    3    0    0  0.99115176219E+01  0.13292324555E+01  0.11612252483E+01  0.10067446788E+02  0.51100000000E-03 0. -1.
<mgrwt>
<rscale>  0 0.20000592E+02</rscale>
<asrwt>0</asrwt>
<pdfrwt beam="2">  1        4 0.13742579E-02 0.20000592E+02</pdfrwt>
<pdfrwt beam="1">  1       -4 0.17223870E-02 0.20000592E+02</pdfrwt>
<totfact> 0.13005646E+06</totfact>
</mgrwt>
</event>
<event>
 5    1  0.1154861E-006  0.2000023E+02  0.7818608E-02  0.1745323E+00
         -4   -1    0    0    0  501 -0.00000000000E+00  0.00000000000E+00  0.45917396479E+01  0.48062951422E+01  0.14200000000E+01 0.  1.
          4   -1    0    0  501    0  0.00000000000E+00 -0.00000000000E+00 -0.21042508041E+02  0.21090366158E+02  0.14200000000E+01 0. -1.
       1023    2    1    2    0    0  0.00000000000E+00  0.00000000000E+00 -0.16450768393E+02  0.25896661300E+02  0.20000232142E+02 0.  0.
        -11    1    3    3    0    0  0.78101991342E+01 -0.62452431471E+01 -0.82344196413E+01  0.12954070386E+02  0.51100000000E-03 0. -1.
         11    1    3    3    0    0 -0.78101991342E+01  0.62452431471E+01 -0.82163487520E+01  0.12942590914E+02  0.51100000000E-03 0.  1.
<mgrwt>
<rscale>  0 0.20000232E+02</rscale>
<asrwt>0</asrwt>
<pdfrwt beam="2">  1        4 0.32574945E-02 0.20000232E+02</pdfrwt>
<pdfrwt beam="1">  1       -4 0.72660716E-03 0.20000232E+02</pdfrwt>
<totfact> 0.12675561E+06</totfact>
</mgrwt>
</event>
<event>
 5    1  0.1165607E-006  0.2000205E+02  0.7818608E-02  0.1745287E+00
          4   -1    0    0  501    0  0.00000000000E+00  0.00000000000E+00  0.45579503480E+01  0.47740246516E+01  0.14200000000E+01 0.  1.
         -4   -1    0    0    0  501 -0.00000000000E+00 -0.00000000000E+00 -0.21195706433E+02  0.21243219417E+02  0.14200000000E+01 0. -1.
       1023    2    1    2    0    0  0.00000000000E+00  0.00000000000E+00 -0.16637756085E+02  0.26017244068E+02  0.20002051429E+02 0.  0.
        -11    1    3    3    0    0  0.47184130831E+00  0.99897713712E+01 -0.83819172782E+01  0.13048934968E+02  0.51100000000E-03 0. -1.
         11    1    3    3    0    0 -0.47184130831E+00 -0.99897713712E+01 -0.82558388065E+01  0.12968309101E+02  0.51100000000E-03 0.  1.
<mgrwt>
<rscale>  0 0.20002051E+02</rscale>
<asrwt>0</asrwt>
<pdfrwt beam="1">  1        4 0.72149909E-03 0.20002051E+02</pdfrwt>
<pdfrwt beam="2">  1       -4 0.32811538E-02 0.20002051E+02</pdfrwt>
<totfact> 0.12666574E+06</totfact>
</mgrwt>
</event>
<event>
 5    1  0.1154861E-006  0.2000301E+02  0.7818608E-02  0.1745268E+00
         -4   -1    0    0    0  501 -0.00000000000E+00  0.00000000000E+00  0.21445806395E+01  0.25720859471E+01  0.14200000000E+01 0.  1.
          4   -1    0    0  501    0  0.00000000000E+00 -0.00000000000E+00 -0.41974982249E+02  0.41998994450E+02  0.14200000000E+01 0. -1.
       1023    2    1    2    0    0  0.00000000000E+00  0.00000000000E+00 -0.39830401610E+02  0.44571080398E+02  0.20003007659E+02 0.  0.
        -11    1    3    3    0    0 -0.70847083918E+01 -0.70593542152E+01 -0.19803708461E+02  0.22185906427E+02  0.51100000000E-03 0.  1.
         11    1    3    3    0    0  0.70847083918E+01  0.70593542152E+01 -0.20026693149E+02  0.22385173970E+02  0.51100000000E-03 0. -1.
<mgrwt>
<rscale>  0 0.20003008E+02</rscale>
<asrwt>0</asrwt>
<pdfrwt beam="2">  1        4 0.64924211E-02 0.20003008E+02</pdfrwt>
<pdfrwt beam="1">  1       -4 0.36466763E-03 0.20003008E+02</pdfrwt>
<totfact> 0.11751244E+06</totfact>
</mgrwt>
</event>
<event>
 5    1  0.1154861E-006  0.2000932E+02  0.7818608E-02  0.1745143E+00
          4   -1    0    0  501    0  0.00000000000E+00  0.00000000000E+00  0.11072243282E+03  0.11073153810E+03  0.14200000000E+01 0. -1.
         -4   -1    0    0    0  501 -0.00000000000E+00 -0.00000000000E+00 -0.33149196194E+00  0.14581793171E+01  0.14200000000E+01 0.  1.
       1023    2    1    2    0    0  0.00000000000E+00  0.00000000000E+00  0.11039094086E+03  0.11218971742E+03  0.20009319583E+02 0.  0.
        -11    1    3    3    0    0 -0.78875633921E+01 -0.61546127743E+01  0.55293007566E+02  0.56190831998E+02  0.51100000000E-03 0. -1.
         11    1    3    3    0    0  0.78875633921E+01  0.61546127743E+01  0.55097933294E+02  0.55998885419E+02  0.51100000000E-03 0.  1.
<mgrwt>
<rscale>  0 0.20009320E+02</rscale>
<asrwt>0</asrwt>
<pdfrwt beam="1">  1        4 0.17121594E-01 0.20009320E+02</pdfrwt>
<pdfrwt beam="2">  1       -4 0.13836739E-03 0.20009320E+02</pdfrwt>
<totfact> 0.94583486E+05</totfact>
</mgrwt>
</event>
<event>
 5    1  0.1211865E-006  0.2000132E+02  0.7818608E-02  0.1745302E+00
         -4   -1    0    0    0  501 -0.00000000000E+00  0.00000000000E+00  0.32300302042E+01  0.35283842081E+01  0.14200000000E+01 0.  1.
          4   -1    0    0  501    0  0.00000000000E+00 -0.00000000000E+00 -0.29280328946E+02  0.29314741397E+02  0.14200000000E+01 0. -1.
       1023    2    1    2    0    0  0.00000000000E+00  0.00000000000E+00 -0.26050298742E+02  0.32843125605E+02  0.20001320831E+02 0.  0.
        -11    1    3    3    0    0  0.58486399685E+01 -0.81114263911E+01 -0.13200325215E+02  0.16560507650E+02  0.51100000000E-03 0. -1.
         11    1    3    3    0    0 -0.58486399685E+01  0.81114263911E+01 -0.12849973527E+02  0.16282617955E+02  0.51100000000E-03 0.  1.
<mgrwt>
<rscale>  0 0.20001321E+02</rscale>
<asrwt>0</asrwt>
<pdfrwt beam="2">  1        4 0.45302632E-02 0.20001321E+02</pdfrwt>
<pdfrwt beam="1">  1       -4 0.52252516E-03 0.20001321E+02</pdfrwt>
<totfact> 0.12307974E+06</totfact>
</mgrwt>
</event>
<event>
 5    1  0.1154861E-006  0.2000126E+02  0.7818608E-02  0.1745303E+00
         -4   -1    0    0    0  501 -0.00000000000E+00  0.00000000000E+00  0.42788763759E+00  0.14830670350E+01  0.14200000000E+01 0. -1.
          4   -1    0    0  501    0  0.00000000000E+00 -0.00000000000E+00 -0.10361017488E+03  0.10361990513E+03  0.14200000000E+01 0.  1.
       1023    2    1    2    0    0  0.00000000000E+00  0.00000000000E+00 -0.10318228725E+03  0.10510297217E+03  0.20001258882E+02 0.  0.
        -11    1    3    3    0    0 -0.11690512708E+01  0.99317568342E+01 -0.51180249471E+02  0.52148100740E+02  0.51100000000E-03 0.  1.
         11    1    3    3    0    0  0.11690512708E+01 -0.99317568342E+01 -0.52002037777E+02  0.52954871427E+02  0.51100000000E-03 0. -1.
<mgrwt>
<rscale>  0 0.20001259E+02</rscale>
<asrwt>0</asrwt>
<pdfrwt beam="2">  1        4 0.16021934E-01 0.20001259E+02</pdfrwt>
<pdfrwt beam="1">  1       -4 0.14774508E-03 0.20001259E+02</pdfrwt>
<totfact> 0.96570892E+05</totfact>
</mgrwt>
</event>
<event>
 4    1  0.1154861E-006  0.2005422E+02  0.7818608E-02  0.1744252E+00
          4   -1    0    0  501    0  0.00000000000E+00  0.00000000000E+00  0.93341717962E+01  0.94415657134E+01  0.14200000000E+01 0.  1.
         -4   -1    0    0    0  501 -0.00000000000E+00 -0.00000000000E+00 -0.10554671284E+02  0.10649764594E+02  0.14200000000E+01 0. -1.
        -11    1    1    2    0    0  0.31217950456E+01 -0.95055246995E+01  0.56096857724E-01  0.10005186217E+02  0.51100000000E-03 0. -1.
         11    1    1    2    0    0 -0.31217950456E+01  0.95055246995E+01 -0.12765963453E+01  0.10086144090E+02  0.51100000000E-03 0.  1.
<mgrwt>
<rscale>  0 0.20054225E+02</rscale>
<asrwt>0</asrwt>
<pdfrwt beam="1">  1        4 0.14516024E-02 0.20054225E+02</pdfrwt>
<pdfrwt beam="2">  1       -4 0.16393715E-02 0.20054225E+02</pdfrwt>
<totfact> 0.12936878E+06</totfact>
</mgrwt>
</event>
<event>
 5    1  0.1154861E-006  0.2000056E+02  0.7818608E-02  0.1745317E+00
          4   -1    0    0  501    0  0.00000000000E+00  0.00000000000E+00  0.49472721952E+00  0.15037137433E+01  0.14200000000E+01 0. -1.
         -4   -1    0    0    0  501 -0.00000000000E+00 -0.00000000000E+00 -0.99066977838E+02  0.99077154269E+02  0.14200000000E+01 0.  1.
       1023    2    1    2    0    0  0.00000000000E+00  0.00000000000E+00 -0.98572250619E+02  0.10058086801E+03  0.20000560443E+02 0.  0.
        -11    1    3    3    0    0 -0.51541409843E+01 -0.85696602616E+01 -0.49100807727E+02  0.50108817248E+02  0.51100000000E-03 0.  1.
         11    1    3    3    0    0  0.51541409843E+01  0.85696602616E+01 -0.49471442891E+02  0.50472050764E+02  0.51100000000E-03 0. -1.
<mgrwt>
<rscale>  0 0.20000560E+02</rscale>
<asrwt>0</asrwt>
<pdfrwt beam="1">  1        4 0.15450911E-03 0.20000560E+02</pdfrwt>
<pdfrwt beam="2">  1       -4 0.15319463E-01 0.20000560E+02</pdfrwt>
<totfact> 0.97841941E+05</totfact>
</mgrwt>
</event>
<event>
 5    1  0.1154861E-006  0.2000034E+02  0.7818608E-02  0.1745321E+00
          4   -1    0    0  501    0  0.00000000000E+00  0.00000000000E+00  0.15918374932E+02  0.15981585043E+02  0.14200000000E+01 0. -1.
         -4   -1    0    0    0  501 -0.00000000000E+00 -0.00000000000E+00 -0.61252223764E+01  0.62876664320E+01  0.14200000000E+01 0.  1.
       1023    2    1    2    0    0  0.00000000000E+00  0.00000000000E+00  0.97931525554E+01  0.22269251475E+02  0.20000343104E+02 0.  0.
        -11    1    3    3    0    0 -0.50028920439E+01  0.86587308982E+01  0.48635230618E+01  0.11120090216E+02  0.51100000000E-03 0. -1.
         11    1    3    3    0    0  0.50028920439E+01 -0.86587308982E+01  0.49296294937E+01  0.11149161259E+02  0.51100000000E-03 0.  1.
<mgrwt>
<rscale>  0 0.20000343E+02</rscale>
<asrwt>0</asrwt>
<pdfrwt beam="1">  1        4 0.24663388E-02 0.20000343E+02</pdfrwt>
<pdfrwt beam="2">  1       -4 0.95969992E-03 0.20000343E+02</pdfrwt>
<totfact> 0.12880175E+06</totfact>
</mgrwt>
</event>
<event>
 5    1  0.1163753E-006  0.2000179E+02  0.7818608E-02  0.1745293E+00
          4   -1    0    0  501    0  0.00000000000E+00  0.00000000000E+00  0.20117886643E+02  0.20167938987E+02  0.14200000000E+01 0.  1.
         -4   -1    0    0    0  501 -0.00000000000E+00 -0.00000000000E+00 -0.48126740235E+01  0.50177914720E+01  0.14200000000E+01 0. -1.
       1023    2    1    2    0    0  0.00000000000E+00  0.00000000000E+00  0.15305212619E+02  0.25185730459E+02  0.20001787056E+02 0.  0.
        -11    1    3    3    0    0 -0.99586833308E+01  0.90833021720E+00  0.74863494373E+01  0.12491831956E+02  0.51100000000E-03 0.  1.
         11    1    3    3    0    0  0.99586833308E+01 -0.90833021720E+00  0.78188631821E+01  0.12693898502E+02  0.51100000000E-03 0. -1.
<mgrwt>
<rscale>  0 0.20001787E+02</rscale>
<asrwt>0</asrwt>
<pdfrwt beam="1">  1        4 0.31146879E-02 0.20001787E+02</pdfrwt>
<pdfrwt beam="2">  1       -4 0.76003985E-03 0.20001787E+02</pdfrwt>
<totfact> 0.12712930E+06</totfact>
</mgrwt>
</event>
<event>
 5    1  0.1154861E-006  0.2000359E+02  0.7818608E-02  0.1745257E+00
         -4   -1    0    0    0  501 -0.00000000000E+00  0.00000000000E+00  0.49531380415E+00  0.15039068337E+01  0.14200000000E+01 0.  1.
          4   -1    0    0  501    0  0.00000000000E+00 -0.00000000000E+00 -0.99058695219E+02  0.99068872500E+02  0.14200000000E+01 0. -1.
       1023    2    1    2    0    0  0.00000000000E+00  0.00000000000E+00 -0.98563381415E+02  0.10057277933E+03  0.20003594353E+02 0.  0.
        -11    1    3    3    0    0 -0.27381884534E+00 -0.99974832307E+01 -0.48747263606E+02  0.49762640174E+02  0.51100000000E-03 0.  1.
         11    1    3    3    0    0  0.27381884534E+00  0.99974832307E+01 -0.49816117808E+02  0.50810139160E+02  0.51100000000E-03 0. -1.
<mgrwt>
<rscale>  0 0.20003594E+02</rscale>
<asrwt>0</asrwt>
<pdfrwt beam="2">  1        4 0.15318158E-01 0.20003594E+02</pdfrwt>
<pdfrwt beam="1">  1       -4 0.15456915E-03 0.20003594E+02</pdfrwt>
<totfact> 0.97814635E+05</totfact>
</mgrwt>
</event>
<event>
 5    1  0.1154861E-006  0.2000083E+02  0.7818608E-02  0.1745311E+00
         -4   -1    0    0    0  501 -0.00000000000E+00  0.00000000000E+00  0.47566504327E+00  0.14975504110E+01  0.14200000000E+01 0.  1.
          4   -1    0    0  501    0  0.00000000000E+00 -0.00000000000E+00 -0.10033635632E+03  0.10034640402E+03  0.14200000000E+01 0. -1.
       1023    2    1    2    0    0  0.00000000000E+00  0.00000000000E+00 -0.99860691280E+02  0.10184395443E+03  0.20000834775E+02 0.  0.
        -11    1    3    3    0    0 -0.95637571632E+01 -0.29223458298E+01 -0.50199376028E+02  0.51185768628E+02  0.51100000000E-03 0. -1.
         11    1    3    3    0    0  0.95637571632E+01  0.29223458298E+01 -0.49661315252E+02  0.50658185805E+02  0.51100000000E-03 0.  1.
<mgrwt>
<rscale>  0 0.20000835E+02</rscale>
<asrwt>0</asrwt>
<pdfrwt beam="2">  1        4 0.15515734E-01 0.20000835E+02</pdfrwt>
<pdfrwt beam="1">  1       -4 0.15255878E-03 0.20000835E+02</pdfrwt>
<totfact> 0.97482457E+05</totfact>
</mgrwt>
</event>
<event>
 5    1  0.1154861E-006  0.2000071E+02  0.7818608E-02  0.1745314E+00
         -4   -1    0    0    0  501 -0.00000000000E+00  0.00000000000E+00  0.15227433783E+02  0.15293499914E+02  0.14200000000E+01 0. -1.
          4   -1    0    0  501    0  0.00000000000E+00 -0.00000000000E+00 -0.64094024973E+01  0.65648183808E+01  0.14200000000E+01 0.  1.
       1023    2    1    2    0    0  0.00000000000E+00  0.00000000000E+00  0.88180312862E+01  0.21858318295E+02  0.20000710061E+02 0.  0.
        -11    1    3    3    0    0  0.77762248135E+01 -0.62876355572E+01  0.43484893771E+01  0.10904741784E+02  0.51100000000E-03 0.  1.
         11    1    3    3    0    0 -0.77762248135E+01  0.62876355572E+01  0.44695419091E+01  0.10953576511E+02  0.51100000000E-03 0. -1.
<mgrwt>
<rscale>  0 0.20000710E+02</rscale>
<asrwt>0</asrwt>
<pdfrwt beam="2">  1        4 0.10030990E-02 0.20000710E+02</pdfrwt>
<pdfrwt beam="1">  1       -4 0.23597192E-02 0.20000710E+02</pdfrwt>
<totfact> 0.12903523E+06</totfact>
</mgrwt>
</event>
<event>
 5    1  0.1154861E-006  0.2000073E+02  0.7818608E-02  0.1745314E+00
          4   -1    0    0  501    0  0.00000000000E+00  0.00000000000E+00  0.15696862480E+01  0.21166754398E+01  0.14200000000E+01 0. -1.
         -4   -1    0    0    0  501 -0.00000000000E+00 -0.00000000000E+00 -0.53700231578E+02  0.53719002890E+02  0.14200000000E+01 0.  1.
       1023    2    1    2    0    0  0.00000000000E+00  0.00000000000E+00 -0.52130545330E+02  0.55835678330E+02  0.20000730441E+02 0.  0.
        -11    1    3    3    0    0 -0.82689974753E+01 -0.56240529559E+01 -0.25976403045E+02  0.27834866738E+02  0.51100000000E-03 0.  1.
         11    1    3    3    0    0  0.82689974753E+01  0.56240529559E+01 -0.26154142285E+02  0.28000811592E+02  0.51100000000E-03 0. -1.
<mgrwt>
<rscale>  0 0.20000730E+02</rscale>
<asrwt>0</asrwt>
<pdfrwt beam="1">  1        4 0.28501027E-03 0.20000730E+02</pdfrwt>
<pdfrwt beam="2">  1       -4 0.83050929E-02 0.20000730E+02</pdfrwt>
<totfact> 0.11280696E+06</totfact>
</mgrwt>
</event>
<event>
 4    1  0.1154861E-006  0.2019251E+02  0.7818608E-02  0.1741527E+00
          4   -1    0    0  501    0  0.00000000000E+00  0.00000000000E+00  0.13588064639E+02  0.13662060629E+02  0.14200000000E+01 0.  1.
         -4   -1    0    0    0  501 -0.00000000000E+00 -0.00000000000E+00 -0.73391480610E+01  0.74752588089E+01  0.14200000000E+01 0. -1.
        -11    1    1    2    0    0 -0.53818935281E+01  0.85398631378E+01  0.33345687745E+01  0.10630775585E+02  0.51100000000E-03 0.  1.
         11    1    1    2    0    0  0.53818935281E+01 -0.85398631378E+01  0.29143478035E+01  0.10506543853E+02  0.51100000000E-03 0. -1.
<mgrwt>
<rscale>  0 0.20192506E+02</rscale>
<asrwt>0</asrwt>
<pdfrwt beam="1">  1        4 0.21066335E-02 0.20192506E+02</pdfrwt>
<pdfrwt beam="2">  1       -4 0.11452618E-02 0.20192506E+02</pdfrwt>
<totfact> 0.12695780E+06</totfact>
</mgrwt>
</event>
<event>
 5    1  0.1175061E-006  0.2000075E+02  0.7818608E-02  0.1745313E+00
          4   -1    0    0  501    0  0.00000000000E+00  0.00000000000E+00  0.16346806764E+02  0.16408366506E+02  0.14200000000E+01 0.  1.
         -4   -1    0    0    0  501 -0.00000000000E+00 -0.00000000000E+00 -0.59612540619E+01  0.61280461805E+01  0.14200000000E+01 0. -1.
       1023    2    1    2    0    0  0.00000000000E+00  0.00000000000E+00  0.10385552702E+02  0.22536412686E+02  0.20000754782E+02 0.  0.
        -11    1    3    3    0    0  0.14468683794E+01  0.98949830024E+01  0.52587768134E+01  0.11298621622E+02  0.51100000000E-03 0.  1.
         11    1    3    3    0    0 -0.14468683794E+01 -0.98949830024E+01  0.51267758890E+01  0.11237791064E+02  0.51100000000E-03 0. -1.
<mgrwt>
<rscale>  0 0.20000755E+02</rscale>
<asrwt>0</asrwt>
<pdfrwt beam="1">  1        4 0.25324588E-02 0.20000755E+02</pdfrwt>
<pdfrwt beam="2">  1       -4 0.93468156E-03 0.20000755E+02</pdfrwt>
<totfact> 0.12864211E+06</totfact>
</mgrwt>
</event>
<event>
 4    1  0.1154861E-006  0.2001337E+02  0.7818608E-02  0.1745062E+00
         -4   -1    0    0    0  501 -0.00000000000E+00  0.00000000000E+00  0.19203254013E+02  0.19255683958E+02  0.14200000000E+01 0.  1.
          4   -1    0    0  501    0  0.00000000000E+00 -0.00000000000E+00 -0.50569527599E+01  0.52525395016E+01  0.14200000000E+01 0. -1.
        -11    1    1    2    0    0  0.47346558547E+01 -0.88125027895E+01  0.73645489285E+01  0.12422308669E+02  0.51100000000E-03 0.  1.
         11    1    1    2    0    0 -0.47346558547E+01  0.88125027895E+01  0.67817523244E+01  0.12085914791E+02  0.51100000000E-03 0. -1.
<mgrwt>
<rscale>  0 0.20013375E+02</rscale>
<asrwt>0</asrwt>
<pdfrwt beam="2">  1        4 0.79707096E-03 0.20013375E+02</pdfrwt>
<pdfrwt beam="1">  1       -4 0.29734249E-02 0.20013375E+02</pdfrwt>
<totfact> 0.12735783E+06</totfact>
</mgrwt>
</event>
<event>
 5    1  0.1154861E-006  0.2000768E+02  0.7818608E-02  0.1745175E+00
         -4   -1    0    0    0  501 -0.00000000000E+00  0.00000000000E+00  0.23075777839E+01  0.27094861559E+01  0.14200000000E+01 0. -1.
          4   -1    0    0  501    0  0.00000000000E+00 -0.00000000000E+00 -0.39478860583E+02  0.39504390047E+02  0.14200000000E+01 0.  1.
       1023    2    1    2    0    0  0.00000000000E+00  0.00000000000E+00 -0.37171282800E+02  0.42213876203E+02  0.20007675504E+02 0.  0.
        -11    1    3    3    0    0 -0.80864797784E+01 -0.58894228212E+01 -0.18622977247E+02  0.21139814052E+02  0.51100000000E-03 0. -1.
         11    1    3    3    0    0  0.80864797784E+01  0.58894228212E+01 -0.18548305553E+02  0.21074062150E+02  0.51100000000E-03 0.  1.
<mgrwt>
<rscale>  0 0.20007676E+02</rscale>
<asrwt>0</asrwt>
<pdfrwt beam="2">  1        4 0.61065502E-02 0.20007676E+02</pdfrwt>
<pdfrwt beam="1">  1       -4 0.38789183E-03 0.20007676E+02</pdfrwt>
<totfact> 0.11851592E+06</totfact>
</mgrwt>
</event>
<event>
 5    1  0.1154861E-006  0.2000070E+02  0.7818608E-02  0.1745314E+00
         -4   -1    0    0    0  501 -0.00000000000E+00  0.00000000000E+00  0.94955858864E+00  0.17082334481E+01  0.14200000000E+01 0. -1.
          4   -1    0    0  501    0  0.00000000000E+00 -0.00000000000E+00 -0.74488322566E+02  0.74501856344E+02  0.14200000000E+01 0.  1.
       1023    2    1    2    0    0  0.00000000000E+00  0.00000000000E+00 -0.73538763978E+02  0.76210089792E+02  0.20000699458E+02 0.  0.
        -11    1    3    3    0    0  0.95675273624E+01  0.29095311370E+01 -0.36527095959E+02  0.37871251507E+02  0.51100000000E-03 0. -1.
         11    1    3    3    0    0 -0.95675273624E+01 -0.29095311370E+01 -0.37011668019E+02  0.38338838285E+02  0.51100000000E-03 0.  1.
<mgrwt>
<rscale>  0 0.20000699E+02</rscale>
<asrwt>0</asrwt>
<pdfrwt beam="2">  1        4 0.11519139E-01 0.20000699E+02</pdfrwt>
<pdfrwt beam="1">  1       -4 0.20548666E-03 0.20000699E+02</pdfrwt>
<totfact> 0.10536083E+06</totfact>
</mgrwt>
</event>
<event>
 5    1  0.1154861E-006  0.2000533E+02  0.7818608E-02  0.1745222E+00
          4   -1    0    0  501    0  0.00000000000E+00  0.00000000000E+00  0.13084786488E+02  0.13161612266E+02  0.14200000000E+01 0.  1.
         -4   -1    0    0    0  501 -0.00000000000E+00 -0.00000000000E+00 -0.74803433205E+01  0.76139304037E+01  0.14200000000E+01 0. -1.
       1023    2    1    2    0    0  0.00000000000E+00  0.00000000000E+00  0.56044431675E+01  0.20775542670E+02  0.20005334039E+02 0.  0.
        -11    1    3    3    0    0 -0.96387104523E+01 -0.26639000422E+01  0.30395924179E+01  0.10451804865E+02  0.51100000000E-03 0. -1.
         11    1    3    3    0    0  0.96387104523E+01  0.26639000422E+01  0.25648507496E+01  0.10323737804E+02  0.51100000000E-03 0.  1.
<mgrwt>
<rscale>  0 0.20005334E+02</rscale>
<asrwt>0</asrwt>
<pdfrwt beam="1">  1        4 0.20292297E-02 0.20005334E+02</pdfrwt>
<pdfrwt beam="2">  1       -4 0.11670077E-02 0.20005334E+02</pdfrwt>
<totfact> 0.12960972E+06</totfact>
</mgrwt>
</event>
<event>
 5    1  0.1154861E-006  0.2000176E+02  0.7818608E-02  0.1745293E+00
         -4   -1    0    0    0  501 -0.00000000000E+00  0.00000000000E+00  0.66998365649E+02  0.67013412088E+02  0.14200000000E+01 0.  1.
          4   -1    0    0  501    0  0.00000000000E+00 -0.00000000000E+00 -0.11364188479E+01  0.18187489650E+01  0.14200000000E+01 0. -1.
       1023    2    1    2    0    0  0.00000000000E+00  0.00000000000E+00  0.65861946801E+02  0.68832161053E+02  0.20001758892E+02 0.  0.
        -11    1    3    3    0    0 -0.94745943411E+01 -0.32009758137E+01  0.33131791790E+02  0.34608233292E+02  0.51100000000E-03 0. -1.
         11    1    3    3    0    0  0.94745943411E+01  0.32009758137E+01  0.32730155011E+02  0.34223927761E+02  0.51100000000E-03 0.  1.
<mgrwt>
<rscale>  0 0.20001759E+02</rscale>
<asrwt>0</asrwt>
<pdfrwt beam="2">  1        4 0.22847805E-03 0.20001759E+02</pdfrwt>
<pdfrwt beam="1">  1       -4 0.10361084E-01 0.20001759E+02</pdfrwt>
<totfact> 0.10790319E+06</totfact>
</mgrwt>
</event>
<event>
 5    1  0.1193182E-006  0.2000107E+02  0.7818608E-02  0.1745307E+00
          4   -1    0    0  501    0  0.00000000000E+00  0.00000000000E+00  0.64954678377E+01  0.66488722676E+01  0.14200000000E+01 0.  1.
         -4   -1    0    0    0  501 -0.00000000000E+00 -0.00000000000E+00 -0.15030036139E+02  0.15096966131E+02  0.14200000000E+01 0. -1.
       1023    2    1    2    0    0  0.00000000000E+00  0.00000000000E+00 -0.85345683017E+01  0.21745838398E+02  0.20001065760E+02 0.  0.
        -11    1    3    3    0    0 -0.99508967572E+01  0.99044730596E+00 -0.43722767758E+01  0.10914125554E+02  0.51100000000E-03 0.  1.
         11    1    3    3    0    0  0.99508967572E+01 -0.99044730596E+00 -0.41622915258E+01  0.10831712844E+02  0.51100000000E-03 0. -1.
<mgrwt>
<rscale>  0 0.20001066E+02</rscale>
<asrwt>0</asrwt>
<pdfrwt beam="1">  1        4 0.10162515E-02 0.20001066E+02</pdfrwt>
<pdfrwt beam="2">  1       -4 0.23292620E-02 0.20001066E+02</pdfrwt>
<totfact> 0.12909605E+06</totfact>
</mgrwt>
</event>
<event>
 4    1  0.1154861E-006  0.2005968E+02  0.7818608E-02  0.1744144E+00
          4   -1    0    0  501    0  0.00000000000E+00  0.00000000000E+00  0.19021108895E+02  0.19074039520E+02  0.14200000000E+01 0. -1.
         -4   -1    0    0    0  501 -0.00000000000E+00 -0.00000000000E+00 -0.51319121666E+01  0.53247462367E+01  0.14200000000E+01 0.  1.
        -11    1    1    2    0    0  0.62057521832E+01  0.78784684845E+01  0.67901985428E+01  0.12111499591E+02  0.51100000000E-03 0. -1.
         11    1    1    2    0    0 -0.62057521832E+01 -0.78784684845E+01  0.70989981859E+01  0.12287286166E+02  0.51100000000E-03 0.  1.
<mgrwt>
<rscale>  0 0.20059685E+02</rscale>
<asrwt>0</asrwt>
<pdfrwt beam="1">  1        4 0.29452294E-02 0.20059685E+02</pdfrwt>
<pdfrwt beam="2">  1       -4 0.80842994E-03 0.20059685E+02</pdfrwt>
<totfact> 0.12682053E+06</totfact>
</mgrwt>
</event>
<event>
 4    1  0.1154861E-006  0.2002912E+02  0.7818608E-02  0.1744750E+00
         -4   -1    0    0    0  501 -0.00000000000E+00  0.00000000000E+00  0.67063635997E+00  0.15703990344E+01  0.14200000000E+01 0. -1.
          4   -1    0    0  501    0  0.00000000000E+00 -0.00000000000E+00 -0.88596807848E+02  0.88608186759E+02  0.14200000000E+01 0.  1.
        -11    1    1    2    0    0  0.54475751046E+01  0.83882592131E+01 -0.41700857347E+02  0.42883568775E+02  0.51100000000E-03 0. -1.
         11    1    1    2    0    0 -0.54475751046E+01 -0.83882592131E+01 -0.46225314140E+02  0.47295017018E+02  0.51100000000E-03 0.  1.
<mgrwt>
<rscale>  0 0.20029121E+02</rscale>
<asrwt>0</asrwt>
<pdfrwt beam="2">  1        4 0.13700360E-01 0.20029121E+02</pdfrwt>
<pdfrwt beam="1">  1       -4 0.17326271E-03 0.20029121E+02</pdfrwt>
<totfact> 0.10060970E+06</totfact>
</mgrwt>
</event>
<event>
 5    1  0.1154861E-006  0.2000226E+02  0.7818608E-02  0.1745283E+00
         -4   -1    0    0    0  501 -0.00000000000E+00  0.00000000000E+00  0.81570381230E+02  0.81582740172E+02  0.14200000000E+01 0. -1.
          4   -1    0    0  501    0  0.00000000000E+00 -0.00000000000E+00 -0.79839756574E+00  0.16290606720E+01  0.14200000000E+01 0.  1.
       1023    2    1    2    0    0  0.00000000000E+00  0.00000000000E+00  0.80771983664E+02  0.83211800844E+02  0.20002261239E+02 0.  0.
        -11    1    3    3    0    0  0.10000039101E+02  0.13674948753E+00  0.40618771623E+02  0.41831854977E+02  0.51100000000E-03 0.  1.
         11    1    3    3    0    0 -0.10000039101E+02 -0.13674948753E+00  0.40153212042E+02  0.41379945867E+02  0.51100000000E-03 0. -1.
<mgrwt>
<rscale>  0 0.20002261E+02</rscale>
<asrwt>0</asrwt>
<pdfrwt beam="2">  1        4 0.18767826E-03 0.20002261E+02</pdfrwt>
<pdfrwt beam="1">  1       -4 0.12614136E-01 0.20002261E+02</pdfrwt>
<totfact> 0.10305084E+06</totfact>
</mgrwt>
</event>
<event>
 5    1  0.1154861E-006  0.2000227E+02  0.7818608E-02  0.1745283E+00
         -4   -1    0    0    0  501 -0.00000000000E+00  0.00000000000E+00  0.74877305646E+02  0.74890769129E+02  0.14200000000E+01 0.  1.
          4   -1    0    0  501    0  0.00000000000E+00 -0.00000000000E+00 -0.94094645569E+00  0.17034612507E+01  0.14200000000E+01 0. -1.
       1023    2    1    2    0    0  0.00000000000E+00  0.00000000000E+00  0.73936359190E+02  0.76594230380E+02  0.20002272801E+02 0.  0.
        -11    1    3    3    0    0  0.98690329959E+01  0.16168148539E+01  0.36569741713E+02  0.37912503370E+02  0.51100000000E-03 0.  1.
         11    1    3    3    0    0 -0.98690329959E+01 -0.16168148539E+01  0.37366617478E+02  0.38681727011E+02  0.51100000000E-03 0. -1.
<mgrwt>
<rscale>  0 0.20002273E+02</rscale>
<asrwt>0</asrwt>
<pdfrwt beam="2">  1        4 0.20445154E-03 0.20002273E+02</pdfrwt>
<pdfrwt beam="1">  1       -4 0.11579281E-01 0.20002273E+02</pdfrwt>
<totfact> 0.10521521E+06</totfact>
</mgrwt>
</event>
<event>
 5    1  0.1154861E-006  0.2000325E+02  0.7818608E-02  0.1745263E+00
          4   -1    0    0  501    0  0.00000000000E+00  0.00000000000E+00  0.26648692706E+02  0.26686498888E+02  0.14200000000E+01 0.  1.
         -4   -1    0    0    0  501 -0.00000000000E+00 -0.00000000000E+00 -0.35774271117E+01  0.38489459258E+01  0.14200000000E+01 0. -1.
       1023    2    1    2    0    0  0.00000000000E+00  0.00000000000E+00  0.23071265594E+02  0.30535444814E+02  0.20003252083E+02 0.  0.
        -11    1    3    3    0    0 -0.64166639317E+01  0.76705439247E+01  0.11760519886E+02  0.15437637396E+02  0.51100000000E-03 0.  1.
         11    1    3    3    0    0  0.64166639317E+01 -0.76705439247E+01  0.11310745708E+02  0.15097807418E+02  0.51100000000E-03 0. -1.
<mgrwt>
<rscale>  0 0.20003252E+02</rscale>
<asrwt>0</asrwt>
<pdfrwt beam="1">  1        4 0.41235930E-02 0.20003252E+02</pdfrwt>
<pdfrwt beam="2">  1       -4 0.57416764E-03 0.20003252E+02</pdfrwt>
<totfact> 0.12423763E+06</totfact>
</mgrwt>
</event>
<event>
 5    1  0.1154861E-006  0.2000061E+02  0.7818608E-02  0.1745316E+00
          4   -1    0    0  501    0  0.00000000000E+00  0.00000000000E+00  0.38263105892E+01  0.40813052722E+01  0.14200000000E+01 0.  1.
         -4   -1    0    0    0  501 -0.00000000000E+00 -0.00000000000E+00 -0.25017829471E+02  0.25058096325E+02  0.14200000000E+01 0. -1.
       1023    2    1    2    0    0  0.00000000000E+00  0.00000000000E+00 -0.21191518882E+02  0.29139401597E+02  0.20000606314E+02 0.  0.
        -11    1    3    3    0    0  0.49425140805E+01 -0.86934564287E+01 -0.10650908638E+02  0.14609807843E+02  0.51100000000E-03 0.  1.
         11    1    3    3    0    0 -0.49425140805E+01  0.86934564287E+01 -0.10540610243E+02  0.14529593755E+02  0.51100000000E-03 0. -1.
<mgrwt>
<rscale>  0 0.20000606E+02</rscale>
<asrwt>0</asrwt>
<pdfrwt beam="1">  1        4 0.61137561E-03 0.20000606E+02</pdfrwt>
<pdfrwt beam="2">  1       -4 0.38716092E-02 0.20000606E+02</pdfrwt>
<totfact> 0.12500166E+06</totfact>
</mgrwt>
</event>
<event>
 5    1  0.1185539E-006  0.2000172E+02  0.7818608E-02  0.1745294E+00
         -4   -1    0    0    0  501 -0.00000000000E+00  0.00000000000E+00  0.34642430554E+01  0.37439791595E+01  0.14200000000E+01 0.  1.
          4   -1    0    0  501    0  0.00000000000E+00 -0.00000000000E+00 -0.27452074023E+02  0.27488775313E+02  0.14200000000E+01 0. -1.
       1023    2    1    2    0    0  0.00000000000E+00  0.00000000000E+00 -0.23987830968E+02  0.31232754472E+02  0.20001722860E+02 0.  0.
        -11    1    3    3    0    0 -0.44129320243E+01  0.89741031958E+01 -0.12139829248E+02  0.15728444031E+02  0.51100000000E-03 0. -1.
         11    1    3    3    0    0  0.44129320243E+01 -0.89741031958E+01 -0.11848001720E+02  0.15504310441E+02  0.51100000000E-03 0.  1.
<mgrwt>
<rscale>  0 0.20001723E+02</rscale>
<asrwt>0</asrwt>
<pdfrwt beam="2">  1        4 0.42477372E-02 0.20001723E+02</pdfrwt>
<pdfrwt beam="1">  1       -4 0.55730183E-03 0.20001723E+02</pdfrwt>
<totfact> 0.12389666E+06</totfact>
</mgrwt>
</event>
<event>
 5    1  0.1166369E-006  0.2000233E+02  0.7818608E-02  0.1745282E+00
         -4   -1    0    0    0  501 -0.00000000000E+00  0.00000000000E+00  0.46142008790E+01  0.48277582533E+01  0.14200000000E+01 0. -1.
          4   -1    0    0  501    0  0.00000000000E+00 -0.00000000000E+00 -0.20948840458E+02  0.20996912072E+02  0.14200000000E+01 0.  1.
       1023    2    1    2    0    0  0.00000000000E+00  0.00000000000E+00 -0.16334639579E+02  0.25824670325E+02  0.20002328545E+02 0.  0.
        -11    1    3    3    0    0  0.52274901656E+01 -0.85261816917E+01 -0.82051569086E+01  0.12936267925E+02  0.51100000000E-03 0.  1.
         11    1    3    3    0    0 -0.52274901656E+01  0.85261816917E+01 -0.81294826708E+01  0.12888402400E+02  0.51100000000E-03 0. -1.
<mgrwt>
<rscale>  0 0.20002329E+02</rscale>
<asrwt>0</asrwt>
<pdfrwt beam="2">  1        4 0.32430238E-02 0.20002329E+02</pdfrwt>
<pdfrwt beam="1">  1       -4 0.73000238E-03 0.20002329E+02</pdfrwt>
<totfact> 0.12676826E+06</totfact>
</mgrwt>
</event>
<event>
 5    1  0.1154861E-006  0.2000287E+02  0.7818608E-02  0.1745271E+00
          4   -1    0    0  501    0  0.00000000000E+00  0.00000000000E+00  0.28946015797E+01  0.32241461359E+01  0.14200000000E+01 0. -1.
         -4   -1    0    0    0  501 -0.00000000000E+00 -0.00000000000E+00 -0.32349854333E+02  0.32381004855E+02  0.14200000000E+01 0.  1.
       1023    2    1    2    0    0  0.00000000000E+00  0.00000000000E+00 -0.29455252754E+02  0.35605150990E+02  0.20002871351E+02 0.  0.
        -11    1    3    3    0    0  0.93754599430E+01 -0.34799716218E+01 -0.14480573420E+02  0.17598194750E+02  0.51100000000E-03 0. -1.
         11    1    3    3    0    0 -0.93754599430E+01  0.34799716218E+01 -0.14974679334E+02  0.18006956240E+02  0.51100000000E-03 0.  1.
<mgrwt>
<rscale>  0 0.20002871E+02</rscale>
<asrwt>0</asrwt>
<pdfrwt beam="1">  1        4 0.47306912E-03 0.20002871E+02</pdfrwt>
<pdfrwt beam="2">  1       -4 0.50046462E-02 0.20002871E+02</pdfrwt>
<totfact> 0.12168739E+06</totfact>
</mgrwt>
</event>
<event>
 5    1  0.1154861E-006  0.2000187E+02  0.7818608E-02  0.1745291E+00
          4   -1    0    0  501    0  0.00000000000E+00  0.00000000000E+00  0.56107480287E+02  0.56125446495E+02  0.14200000000E+01 0.  1.
         -4   -1    0    0    0  501 -0.00000000000E+00 -0.00000000000E+00 -0.14786112909E+01  0.20500466701E+01  0.14200000000E+01 0. -1.
       1023    2    1    2    0    0  0.00000000000E+00  0.00000000000E+00  0.54628868997E+02  0.58175493165E+02  0.20001866840E+02 0.  0.
        -11    1    3    3    0    0  0.63057583939E+01 -0.77614814720E+01  0.27676370242E+02  0.29427617192E+02  0.51100000000E-03 0.  1.
         11    1    3    3    0    0 -0.63057583939E+01  0.77614814720E+01  0.26952498754E+02  0.28747875972E+02  0.51100000000E-03 0. -1.
<mgrwt>
<rscale>  0 0.20001867E+02</rscale>
<asrwt>0</asrwt>
<pdfrwt beam="1">  1        4 0.86772580E-02 0.20001867E+02</pdfrwt>
<pdfrwt beam="2">  1       -4 0.27281726E-03 0.20001867E+02</pdfrwt>
<totfact> 0.11187291E+06</totfact>
</mgrwt>
</event>
<event>
 5    1  0.1154861E-006  0.2000021E+02  0.7818608E-02  0.1745324E+00
         -4   -1    0    0    0  501 -0.00000000000E+00  0.00000000000E+00  0.19839038727E+01  0.24397283816E+01  0.14200000000E+01 0. -1.
          4   -1    0    0  501    0  0.00000000000E+00 -0.00000000000E+00 -0.44744403340E+02  0.44766930096E+02  0.14200000000E+01 0.  1.
       1023    2    1    2    0    0  0.00000000000E+00  0.00000000000E+00 -0.42760499467E+02  0.47206658477E+02  0.20000207248E+02 0.  0.
        -11    1    3    3    0    0 -0.48587755726E+01 -0.87403621833E+01 -0.21330679420E+02  0.23558427705E+02  0.51100000000E-03 0.  1.
         11    1    3    3    0    0  0.48587755726E+01  0.87403621833E+01 -0.21429820047E+02  0.23648230773E+02  0.51100000000E-03 0. -1.
<mgrwt>
<rscale>  0 0.20000207E+02</rscale>
<asrwt>0</asrwt>
<pdfrwt beam="2">  1        4 0.69205499E-02 0.20000207E+02</pdfrwt>
<pdfrwt beam="1">  1       -4 0.34201226E-03 0.20000207E+02</pdfrwt>
<totfact> 0.11639082E+06</totfact>
</mgrwt>
</event>
<event>
 5    1  0.1154861E-006  0.2000050E+02  0.7818608E-02  0.1745318E+00
          4   -1    0    0  501    0  0.00000000000E+00  0.00000000000E+00  0.18227223072E+02  0.18282452267E+02  0.14200000000E+01 0.  1.
         -4   -1    0    0    0  501 -0.00000000000E+00 -0.00000000000E+00 -0.53299469354E+01  0.55158620663E+01  0.14200000000E+01 0. -1.
       1023    2    1    2    0    0  0.00000000000E+00  0.00000000000E+00  0.12897276136E+02  0.23798314334E+02  0.20000500828E+02 0.  0.
        -11    1    3    3    0    0 -0.96335271504E+01  0.26829101911E+01  0.63933930673E+01  0.11869217650E+02  0.51100000000E-03 0.  1.
         11    1    3    3    0    0  0.96335271504E+01 -0.26829101911E+01  0.65038830691E+01  0.11929096684E+02  0.51100000000E-03 0. -1.
<mgrwt>
<rscale>  0 0.20000501E+02</rscale>
<asrwt>0</asrwt>
<pdfrwt beam="1">  1        4 0.28227377E-02 0.20000501E+02</pdfrwt>
<pdfrwt beam="2">  1       -4 0.83854140E-03 0.20000501E+02</pdfrwt>
<totfact> 0.12792501E+06</totfact>
</mgrwt>
</event>
<event>
 5    1  0.1154861E-006  0.2000014E+02  0.7818608E-02  0.1745325E+00
         -4   -1    0    0    0  501 -0.00000000000E+00  0.00000000000E+00  0.45011967905E+01  0.47198699714E+01  0.14200000000E+01 0. -1.
          4   -1    0    0  501    0  0.00000000000E+00 -0.00000000000E+00 -0.21447066757E+02  0.21494024111E+02  0.14200000000E+01 0.  1.
       1023    2    1    2    0    0  0.00000000000E+00  0.00000000000E+00 -0.16945869967E+02  0.26213894082E+02  0.20000143350E+02 0.  0.
        -11    1    3    3    0    0  0.88268209968E+01  0.46997188138E+01 -0.84255430302E+01  0.13076310697E+02  0.51100000000E-03 0. -1.
         11    1    3    3    0    0 -0.88268209968E+01 -0.46997188138E+01 -0.85203269364E+01  0.13137583385E+02  0.51100000000E-03 0.  1.
<mgrwt>
<rscale>  0 0.20000143E+02</rscale>
<asrwt>0</asrwt>
<pdfrwt beam="2">  1        4 0.33199818E-02 0.20000143E+02</pdfrwt>
<pdfrwt beam="1">  1       -4 0.71292494E-03 0.20000143E+02</pdfrwt>
<totfact> 0.12658227E+06</totfact>
</mgrwt>
</event>
<event>
 5    1  0.1154861E-006  0.2000229E+02  0.7818608E-02  0.1745283E+00
          4   -1    0    0  501    0  0.00000000000E+00  0.00000000000E+00  0.55718438518E+00  0.15254030415E+01  0.14200000000E+01 0.  1.
         -4   -1    0    0    0  501 -0.00000000000E+00 -0.00000000000E+00 -0.95080359289E+02  0.95090962360E+02  0.14200000000E+01 0. -1.
       1023    2    1    2    0    0  0.00000000000E+00  0.00000000000E+00 -0.94523174904E+02  0.96616365402E+02  0.20002286606E+02 0.  0.
        -11    1    3    3    0    0  0.73957241756E+01 -0.67324674819E+01 -0.47278754953E+02  0.48324978268E+02  0.51100000000E-03 0.  1.
         11    1    3    3    0    0 -0.73957241756E+01  0.67324674819E+01 -0.47244419952E+02  0.48291387134E+02  0.51100000000E-03 0. -1.
<mgrwt>
<rscale>  0 0.20002287E+02</rscale>
<asrwt>0</asrwt>
<pdfrwt beam="1">  1        4 0.16101473E-03 0.20002287E+02</pdfrwt>
<pdfrwt beam="2">  1       -4 0.14703035E-01 0.20002287E+02</pdfrwt>
<totfact> 0.98964204E+05</totfact>
</mgrwt>
</event>
<event>
 5    1  0.1154861E-006  0.2000180E+02  0.7818608E-02  0.1745292E+00
         -4   -1    0    0    0  501 -0.00000000000E+00  0.00000000000E+00  0.92956547564E+01  0.94034885734E+01  0.14200000000E+01 0. -1.
          4   -1    0    0  501    0  0.00000000000E+00 -0.00000000000E+00 -0.10541891576E+02  0.10637099135E+02  0.14200000000E+01 0.  1.
       1023    2    1    2    0    0  0.00000000000E+00  0.00000000000E+00 -0.12462368201E+01  0.20040587708E+02  0.20001801156E+02 0.  0.
        -11    1    3    3    0    0 -0.77391098278E+01 -0.63343249175E+01 -0.60029214434E+00  0.10018874388E+02  0.51100000000E-03 0.  1.
         11    1    3    3    0    0  0.77391098278E+01  0.63343249175E+01 -0.64594467580E+00  0.10021713320E+02  0.51100000000E-03 0. -1.
<mgrwt>
<rscale>  0 0.20001801E+02</rscale>
<asrwt>0</asrwt>
<pdfrwt beam="2">  1        4 0.16374480E-02 0.20001801E+02</pdfrwt>
<pdfrwt beam="1">  1       -4 0.14457193E-02 0.20001801E+02</pdfrwt>
<totfact> 0.13009244E+06</totfact>
</mgrwt>
</event>
<event>
 4    1  0.1154861E-006  0.2012444E+02  0.7818608E-02  0.1742865E+00
         -4   -1    0    0    0  501 -0.00000000000E+00  0.00000000000E+00  0.51146989058E+02  0.51166697077E+02  0.14200000000E+01 0. -1.
          4   -1    0    0  501    0  0.00000000000E+00 -0.00000000000E+00 -0.17021452191E+01  0.22166863439E+01  0.14200000000E+01 0.  1.
        -11    1    1    2    0    0 -0.60896160779E+01 -0.79821588510E+01  0.22943006739E+02  0.25043558900E+02  0.51100000000E-03 0. -1.
         11    1    1    2    0    0  0.60896160779E+01  0.79821588510E+01  0.26501837101E+02  0.28339824521E+02  0.51100000000E-03 0.  1.
<mgrwt>
<rscale>  0 0.20124439E+02</rscale>
<asrwt>0</asrwt>
<pdfrwt beam="2">  1        4 0.30296463E-03 0.20124439E+02</pdfrwt>
<pdfrwt beam="1">  1       -4 0.79098624E-02 0.20124439E+02</pdfrwt>
<totfact> 0.11238725E+06</totfact>
</mgrwt>
</event>
<event>
 5    1  0.1154861E-006  0.2000201E+02  0.7818608E-02  0.1745288E+00
         -4   -1    0    0    0  501 -0.00000000000E+00  0.00000000000E+00  0.17955501370E+01  0.22891920615E+01  0.14200000000E+01 0.  1.
          4   -1    0    0  501    0  0.00000000000E+00 -0.00000000000E+00 -0.48467249340E+02  0.48488046554E+02  0.14200000000E+01 0. -1.
       1023    2    1    2    0    0  0.00000000000E+00  0.00000000000E+00 -0.46671699203E+02  0.50777238615E+02  0.20002011271E+02 0.  0.
        -11    1    3    3    0    0 -0.95622326589E+01 -0.29291180905E+01 -0.23173552416E+02  0.25239444488E+02  0.51100000000E-03 0.  1.
         11    1    3    3    0    0  0.95622326589E+01  0.29291180905E+01 -0.23498146787E+02  0.25537794128E+02  0.51100000000E-03 0. -1.
<mgrwt>
<rscale>  0 0.20002011E+02</rscale>
<asrwt>0</asrwt>
<pdfrwt beam="2">  1        4 0.74960713E-02 0.20002011E+02</pdfrwt>
<pdfrwt beam="1">  1       -4 0.31581076E-03 0.20002011E+02</pdfrwt>
<totfact> 0.11485323E+06</totfact>
</mgrwt>
</event>
<event>
 5    1  0.1154861E-006  0.2000059E+02  0.7818608E-02  0.1745316E+00
         -4   -1    0    0    0  501 -0.00000000000E+00  0.00000000000E+00  0.19549759626E+01  0.24162638544E+01  0.14200000000E+01 0. -1.
          4   -1    0    0  501    0  0.00000000000E+00 -0.00000000000E+00 -0.45282730123E+02  0.45304989211E+02  0.14200000000E+01 0.  1.
       1023    2    1    2    0    0  0.00000000000E+00  0.00000000000E+00 -0.43327754160E+02  0.47721253065E+02  0.20000592829E+02 0.  0.
        -11    1    3    3    0    0  0.83277642365E+01  0.55365230623E+01 -0.21581800235E+02  0.23786106164E+02  0.51100000000E-03 0.  1.
         11    1    3    3    0    0 -0.83277642365E+01 -0.55365230623E+01 -0.21745953926E+02  0.23935146902E+02  0.51100000000E-03 0. -1.
<mgrwt>
<rscale>  0 0.20000593E+02</rscale>
<asrwt>0</asrwt>
<pdfrwt beam="2">  1        4 0.70037691E-02 0.20000593E+02</pdfrwt>
<pdfrwt beam="1">  1       -4 0.33796149E-03 0.20000593E+02</pdfrwt>
<totfact> 0.11616438E+06</totfact>
</mgrwt>
</event>
<event>
 5    1  0.1154861E-006  0.2000284E+02  0.7818608E-02  0.1745272E+00
          4   -1    0    0  501    0  0.00000000000E+00  0.00000000000E+00  0.93039842012E+02  0.93050677598E+02  0.14200000000E+01 0.  1.
         -4   -1    0    0    0  501 -0.00000000000E+00 -0.00000000000E+00 -0.59049254221E+00  0.15378821289E+01  0.14200000000E+01 0. -1.
       1023    2    1    2    0    0  0.00000000000E+00  0.00000000000E+00  0.92449349469E+02  0.94588559727E+02  0.20002835149E+02 0.  0.
        -11    1    3    3    0    0 -0.98947158455E+01  0.14570339883E+01  0.46233559946E+02  0.47302964128E+02  0.51100000000E-03 0. -1.
         11    1    3    3    0    0  0.98947158455E+01 -0.14570339883E+01  0.46215789523E+02  0.47285595600E+02  0.51100000000E-03 0.  1.
<mgrwt>
<rscale>  0 0.20002835E+02</rscale>
<asrwt>0</asrwt>
<pdfrwt beam="1">  1        4 0.14387532E-01 0.20002835E+02</pdfrwt>
<pdfrwt beam="2">  1       -4 0.16455463E-03 0.20002835E+02</pdfrwt>
<totfact> 0.99553078E+05</totfact>
</mgrwt>
</event>
<event>
 5    1  0.1222008E-006  0.2000115E+02  0.7818608E-02  0.1745305E+00
          4   -1    0    0  501    0  0.00000000000E+00  0.00000000000E+00  0.91403232805E+01  0.92499680904E+01  0.14200000000E+01 0. -1.
         -4   -1    0    0    0  501 -0.00000000000E+00 -0.00000000000E+00 -0.10719813034E+02  0.10813454188E+02  0.14200000000E+01 0.  1.
       1023    2    1    2    0    0  0.00000000000E+00  0.00000000000E+00 -0.15794897532E+01  0.20063422278E+02  0.20001153108E+02 0.  0.
        -11    1    3    3    0    0  0.17298179798E+01  0.98497987285E+01 -0.81677155480E+00  0.10033838810E+02  0.51100000000E-03 0.  1.
         11    1    3    3    0    0 -0.17298179798E+01 -0.98497987285E+01 -0.76271819837E+00  0.10029583468E+02  0.51100000000E-03 0. -1.
<mgrwt>
<rscale>  0 0.20001153E+02</rscale>
<asrwt>0</asrwt>
<pdfrwt beam="1">  1        4 0.14218410E-02 0.20001153E+02</pdfrwt>
<pdfrwt beam="2">  1       -4 0.16648394E-02 0.20001153E+02</pdfrwt>
<totfact> 0.13008750E+06</totfact>
</mgrwt>
</event>
<event>
 5    1  0.1154861E-006  0.2000024E+02  0.7818608E-02  0.1745323E+00
         -4   -1    0    0    0  501 -0.00000000000E+00  0.00000000000E+00  0.72517280729E+01  0.73894492382E+01  0.14200000000E+01 0. -1.
          4   -1    0    0  501    0  0.00000000000E+00 -0.00000000000E+00 -0.13485077952E+02  0.13559635960E+02  0.14200000000E+01 0.  1.
       1023    2    1    2    0    0  0.00000000000E+00  0.00000000000E+00 -0.62333498786E+01  0.20949085198E+02  0.20000237996E+02 0.  0.
        -11    1    3    3    0    0 -0.68783380795E+01 -0.72588429092E+01 -0.31236702855E+01  0.10476624047E+02  0.51100000000E-03 0. -1.
         11    1    3    3    0    0  0.68783380795E+01  0.72588429092E+01 -0.31096795931E+01  0.10472461150E+02  0.51100000000E-03 0.  1.
<mgrwt>
<rscale>  0 0.20000238E+02</rscale>
<asrwt>0</asrwt>
<pdfrwt beam="2">  1        4 0.20909565E-02 0.20000238E+02</pdfrwt>
<pdfrwt beam="1">  1       -4 0.11319796E-02 0.20000238E+02</pdfrwt>
<totfact> 0.12957442E+06</totfact>
</mgrwt>
</event>
<event>
 5    1  0.1154861E-006  0.2000028E+02  0.7818608E-02  0.1745323E+00
          4   -1    0    0  501    0  0.00000000000E+00  0.00000000000E+00  0.11191105596E+01  0.18079846362E+01  0.14200000000E+01 0. -1.
         -4   -1    0    0    0  501 -0.00000000000E+00 -0.00000000000E+00 -0.67630935491E+02  0.67645841228E+02  0.14200000000E+01 0.  1.
       1023    2    1    2    0    0  0.00000000000E+00  0.00000000000E+00 -0.66511824932E+02  0.69453825864E+02  0.20000276783E+02 0.  0.
        -11    1    3    3    0    0 -0.11554099862E+01  0.99330730054E+01 -0.33405519487E+02  0.34870182735E+02  0.51100000000E-03 0. -1.
         11    1    3    3    0    0  0.11554099862E+01 -0.99330730054E+01 -0.33106305445E+02  0.34583643129E+02  0.51100000000E-03 0.  1.
<mgrwt>
<rscale>  0 0.20000277E+02</rscale>
<asrwt>0</asrwt>
<pdfrwt beam="1">  1        4 0.22630782E-03 0.20000277E+02</pdfrwt>
<pdfrwt beam="2">  1       -4 0.10458894E-01 0.20000277E+02</pdfrwt>
<totfact> 0.10769826E+06</totfact>
</mgrwt>
</event>
<event>
 5    1  0.1154861E-006  0.2000254E+02  0.7818608E-02  0.1745278E+00
          4   -1    0    0  501    0  0.00000000000E+00  0.00000000000E+00  0.94432624247E+02  0.94443300039E+02  0.14200000000E+01 0.  1.
         -4   -1    0    0    0  501 -0.00000000000E+00 -0.00000000000E+00 -0.56766287511E+00  0.15292616322E+01  0.14200000000E+01 0. -1.
       1023    2    1    2    0    0  0.00000000000E+00  0.00000000000E+00  0.93864961372E+02  0.95972561671E+02  0.20002540346E+02 0.  0.
        -11    1    3    3    0    0  0.93416609355E+01  0.35719263838E+01  0.46984532027E+02  0.48037189106E+02  0.51100000000E-03 0.  1.
         11    1    3    3    0    0 -0.93416609355E+01 -0.35719263838E+01  0.46880429345E+02  0.47935372565E+02  0.51100000000E-03 0. -1.
<mgrwt>
<rscale>  0 0.20002540E+02</rscale>
<asrwt>0</asrwt>
<pdfrwt beam="1">  1        4 0.14602887E-01 0.20002540E+02</pdfrwt>
<pdfrwt beam="2">  1       -4 0.16212309E-03 0.20002540E+02</pdfrwt>
<totfact> 0.99149500E+05</totfact>
</mgrwt>
</event>
<event>
 5    1  0.1155978E-006  0.2000116E+02  0.7818608E-02  0.1745305E+00
         -4   -1    0    0    0  501 -0.00000000000E+00  0.00000000000E+00  0.49798412068E+01  0.51783412832E+01  0.14200000000E+01 0.  1.
          4   -1    0    0  501    0  0.00000000000E+00 -0.00000000000E+00 -0.19465968643E+02  0.19517692876E+02  0.14200000000E+01 0. -1.
       1023    2    1    2    0    0  0.00000000000E+00  0.00000000000E+00 -0.14486127436E+02  0.24696034159E+02  0.20001155344E+02 0.  0.
        -11    1    3    3    0    0  0.84034618212E+01  0.54209635509E+01 -0.71432327957E+01  0.12289458549E+02  0.51100000000E-03 0. -1.
         11    1    3    3    0    0 -0.84034618212E+01 -0.54209635509E+01 -0.73428946400E+01  0.12406575610E+02  0.51100000000E-03 0.  1.
<mgrwt>
<rscale>  0 0.20001155E+02</rscale>
<asrwt>0</asrwt>
<pdfrwt beam="2">  1        4 0.30140124E-02 0.20001155E+02</pdfrwt>
<pdfrwt beam="1">  1       -4 0.78537745E-03 0.20001155E+02</pdfrwt>
<totfact> 0.12741098E+06</totfact>
</mgrwt>
</event>
<event>
 5    1  0.1154861E-006  0.2000033E+02  0.7818608E-02  0.1745321E+00
         -4   -1    0    0    0  501 -0.00000000000E+00  0.00000000000E+00  0.42564714923E+01  0.44870869799E+01  0.14200000000E+01 0. -1.
          4   -1    0    0  501    0  0.00000000000E+00 -0.00000000000E+00 -0.22621276649E+02  0.22665801491E+02  0.14200000000E+01 0.  1.
       1023    2    1    2    0    0  0.00000000000E+00  0.00000000000E+00 -0.18364805157E+02  0.27152888471E+02  0.20000332094E+02 0.  0.
        -11    1    3    3    0    0 -0.22160905019E+01 -0.97515157210E+01 -0.92018283256E+01  0.13589582803E+02  0.51100000000E-03 0. -1.
         11    1    3    3    0    0  0.22160905019E+01  0.97515157210E+01 -0.91629768311E+01  0.13563305668E+02  0.51100000000E-03 0.  1.
<mgrwt>
<rscale>  0 0.20000332E+02</rscale>
<asrwt>0</asrwt>
<pdfrwt beam="2">  1        4 0.35013610E-02 0.20000332E+02</pdfrwt>
<pdfrwt beam="1">  1       -4 0.67600642E-03 0.20000332E+02</pdfrwt>
<totfact> 0.12606776E+06</totfact>
</mgrwt>
</event>
<event>
 5    1  0.1154861E-006  0.2000036E+02  0.7818608E-02  0.1745321E+00
         -4   -1    0    0    0  501 -0.00000000000E+00  0.00000000000E+00  0.11815655576E+02  0.11900677153E+02  0.14200000000E+01 0.  1.
          4   -1    0    0  501    0  0.00000000000E+00 -0.00000000000E+00 -0.82876860161E+01  0.84084564280E+01  0.14200000000E+01 0. -1.
       1023    2    1    2    0    0  0.00000000000E+00  0.00000000000E+00  0.35279695599E+01  0.20309133581E+02  0.20000358436E+02 0.  0.
        -11    1    3    3    0    0 -0.74420747471E+01  0.66797508622E+01  0.17700783193E+01  0.10155625320E+02  0.51100000000E-03 0.  1.
         11    1    3    3    0    0  0.74420747471E+01 -0.66797508622E+01  0.17578912407E+01  0.10153508261E+02  0.51100000000E-03 0. -1.
<mgrwt>
<rscale>  0 0.20000358E+02</rscale>
<asrwt>0</asrwt>
<pdfrwt beam="2">  1        4 0.12908588E-02 0.20000358E+02</pdfrwt>
<pdfrwt beam="1">  1       -4 0.18336233E-02 0.20000358E+02</pdfrwt>
<totfact> 0.12995170E+06</totfact>
</mgrwt>
</event>
<event>
 5    1  0.1154861E-006  0.2000146E+02  0.7818608E-02  0.1745299E+00
         -4   -1    0    0    0  501 -0.00000000000E+00  0.00000000000E+00  0.19982571176E+01  0.24514141853E+01  0.14200000000E+01 0. -1.
          4   -1    0    0  501    0  0.00000000000E+00 -0.00000000000E+00 -0.44488074531E+02  0.44510731015E+02  0.14200000000E+01 0.  1.
       1023    2    1    2    0    0  0.00000000000E+00  0.00000000000E+00 -0.42489817413E+02  0.46962145200E+02  0.20001462396E+02 0.  0.
        -11    1    3    3    0    0  0.40953103277E+01  0.91236191578E+01 -0.21124475016E+02  0.23372108124E+02  0.51100000000E-03 0.  1.
         11    1    3    3    0    0 -0.40953103277E+01 -0.91236191578E+01 -0.21365342397E+02  0.23590037076E+02  0.51100000000E-03 0. -1.
<mgrwt>
<rscale>  0 0.20001462E+02</rscale>
<asrwt>0</asrwt>
<pdfrwt beam="2">  1        4 0.68809195E-02 0.20001462E+02</pdfrwt>
<pdfrwt beam="1">  1       -4 0.34402525E-03 0.20001462E+02</pdfrwt>
<totfact> 0.11648190E+06</totfact>
</mgrwt>
</event>
<event>
 4    1  0.1154861E-006  0.2012428E+02  0.7818608E-02  0.1742868E+00
          4   -1    0    0  501    0  0.00000000000E+00  0.00000000000E+00  0.13057145908E+01  0.19290646938E+01  0.14200000000E+01 0.  1.
         -4   -1    0    0    0  501 -0.00000000000E+00 -0.00000000000E+00 -0.61965740428E+02  0.61982008574E+02  0.14200000000E+01 0. -1.
        -11    1    1    2    0    0 -0.23539596289E+01 -0.97224105206E+01 -0.26879831254E+02  0.28680859833E+02  0.51100000000E-03 0. -1.
         11    1    1    2    0    0  0.23539596289E+01  0.97224105206E+01 -0.33780194584E+02  0.35230213435E+02  0.51100000000E-03 0.  1.
<mgrwt>
<rscale>  0 0.20124278E+02</rscale>
<asrwt>0</asrwt>
<pdfrwt beam="1">  1        4 0.25008062E-03 0.20124278E+02</pdfrwt>
<pdfrwt beam="2">  1       -4 0.95823904E-02 0.20124278E+02</pdfrwt>
<totfact> 0.10835347E+06</totfact>
</mgrwt>
</event>
<event>
 5    1  0.1154861E-006  0.2000293E+02  0.7818608E-02  0.1745270E+00
         -4   -1    0    0    0  501 -0.00000000000E+00  0.00000000000E+00  0.22417418036E+01  0.26536402006E+01  0.14200000000E+01 0.  1.
          4   -1    0    0  501    0  0.00000000000E+00 -0.00000000000E+00 -0.40441376407E+02  0.40466298641E+02  0.14200000000E+01 0. -1.
       1023    2    1    2    0    0  0.00000000000E+00  0.00000000000E+00 -0.38199634604E+02  0.43119938842E+02  0.20002925832E+02 0.  0.
        -11    1    3    3    0    0 -0.93699993810E+01  0.34971906890E+01 -0.19196920881E+02  0.21645992763E+02  0.51100000000E-03 0. -1.
         11    1    3    3    0    0  0.93699993810E+01 -0.34971906890E+01 -0.19002713722E+02  0.21473946079E+02  0.51100000000E-03 0.  1.
<mgrwt>
<rscale>  0 0.20002926E+02</rscale>
<asrwt>0</asrwt>
<pdfrwt beam="2">  1        4 0.62553513E-02 0.20002926E+02</pdfrwt>
<pdfrwt beam="1">  1       -4 0.37848497E-03 0.20002926E+02</pdfrwt>
<totfact> 0.11816261E+06</totfact>
</mgrwt>
</event>
<event>
 5    1  0.1154861E-006  0.2000133E+02  0.7818608E-02  0.1745302E+00
          4   -1    0    0  501    0  0.00000000000E+00  0.00000000000E+00  0.12346997508E+01  0.18817235383E+01  0.14200000000E+01 0.  1.
         -4   -1    0    0    0  501 -0.00000000000E+00 -0.00000000000E+00 -0.63528078387E+02  0.63543946553E+02  0.14200000000E+01 0. -1.
       1023    2    1    2    0    0  0.00000000000E+00  0.00000000000E+00 -0.62293378636E+02  0.65425670091E+02  0.20001332080E+02 0.  0.
        -11    1    3    3    0    0 -0.40813600210E+01 -0.91295927156E+01 -0.31407518863E+02  0.32961177226E+02  0.51100000000E-03 0.  1.
         11    1    3    3    0    0  0.40813600210E+01  0.91295927156E+01 -0.30885859773E+02  0.32464492865E+02  0.51100000000E-03 0. -1.
<mgrwt>
<rscale>  0 0.20001332E+02</rscale>
<asrwt>0</asrwt>
<pdfrwt beam="1">  1        4 0.24094555E-03 0.20001332E+02</pdfrwt>
<pdfrwt beam="2">  1       -4 0.98245402E-02 0.20001332E+02</pdfrwt>
<totfact> 0.10913876E+06</totfact>
</mgrwt>
</event>
<event>
 5    1  0.1154861E-006  0.2000017E+02  0.7818608E-02  0.1745325E+00
         -4   -1    0    0    0  501 -0.00000000000E+00  0.00000000000E+00  0.40855053893E+01  0.43252461532E+01  0.14200000000E+01 0.  1.
          4   -1    0    0  501    0  0.00000000000E+00 -0.00000000000E+00 -0.23517727666E+02  0.23560558452E+02  0.14200000000E+01 0. -1.
       1023    2    1    2    0    0  0.00000000000E+00  0.00000000000E+00 -0.19432222277E+02  0.27885804605E+02  0.20000170896E+02 0.  0.
        -11    1    3    3    0    0 -0.40352884457E+01 -0.91497225589E+01 -0.96783634539E+01  0.13916597830E+02  0.51100000000E-03 0.  1.
         11    1    3    3    0    0  0.40352884457E+01  0.91497225589E+01 -0.97538588230E+01  0.13969206776E+02  0.51100000000E-03 0. -1.
<mgrwt>
<rscale>  0 0.20000171E+02</rscale>
<asrwt>0</asrwt>
<pdfrwt beam="2">  1        4 0.36398481E-02 0.20000171E+02</pdfrwt>
<pdfrwt beam="1">  1       -4 0.65027558E-03 0.20000171E+02</pdfrwt>
<totfact> 0.12567457E+06</totfact>
</mgrwt>
</event>
<event>
 5    1  0.1154861E-006  0.2000107E+02  0.7818608E-02  0.1745307E+00
          4   -1    0    0  501    0  0.00000000000E+00  0.00000000000E+00  0.25668424349E+01  0.29334416793E+01  0.14200000000E+01 0.  1.
         -4   -1    0    0    0  501 -0.00000000000E+00 -0.00000000000E+00 -0.35984114097E+02  0.36012121117E+02  0.14200000000E+01 0. -1.
       1023    2    1    2    0    0  0.00000000000E+00  0.00000000000E+00 -0.33417271662E+02  0.38945562796E+02  0.20001070376E+02 0.  0.
        -11    1    3    3    0    0  0.81813084242E+01 -0.57504662763E+01 -0.16893708092E+02  0.19631582801E+02  0.51100000000E-03 0. -1.
         11    1    3    3    0    0 -0.81813084242E+01  0.57504662763E+01 -0.16523563570E+02  0.19313979995E+02  0.51100000000E-03 0.  1.
<mgrwt>
<rscale>  0 0.20001070E+02</rscale>
<asrwt>0</asrwt>
<pdfrwt beam="1">  1        4 0.42525319E-03 0.20001070E+02</pdfrwt>
<pdfrwt beam="2">  1       -4 0.55663715E-02 0.20001070E+02</pdfrwt>
<totfact> 0.12010672E+06</totfact>
</mgrwt>
</event>
<event>
 5    1  0.1154861E-006  0.2000802E+02  0.7818608E-02  0.1745169E+00
          4   -1    0    0  501    0  0.00000000000E+00  0.00000000000E+00  0.63350292104E+02  0.63366204791E+02  0.14200000000E+01 0.  1.
         -4   -1    0    0    0  501 -0.00000000000E+00 -0.00000000000E+00 -0.12412497818E+01  0.18860278420E+01  0.14200000000E+01 0. -1.
       1023    2    1    2    0    0  0.00000000000E+00  0.00000000000E+00  0.62109042322E+02  0.65252232633E+02  0.20008016530E+02 0.  0.
        -11    1    3    3    0    0  0.25332082371E+01  0.96752831692E+01  0.30311310557E+02  0.31918706056E+02  0.51100000000E-03 0. -1.
         11    1    3    3    0    0 -0.25332082371E+01 -0.96752831692E+01  0.31797731765E+02  0.33333526577E+02  0.51100000000E-03 0.  1.
<mgrwt>
<rscale>  0 0.20008017E+02</rscale>
<asrwt>0</asrwt>
<pdfrwt beam="1">  1        4 0.97970236E-02 0.20008017E+02</pdfrwt>
<pdfrwt beam="2">  1       -4 0.24178381E-03 0.20008017E+02</pdfrwt>
<totfact> 0.10912907E+06</totfact>
</mgrwt>
</event>
<event>
 5    1  0.1154861E-006  0.2001123E+02  0.7818608E-02  0.1745105E+00
          4   -1    0    0  501    0  0.00000000000E+00  0.00000000000E+00  0.12794591089E+02  0.12873148843E+02  0.14200000000E+01 0.  1.
         -4   -1    0    0    0  501 -0.00000000000E+00 -0.00000000000E+00 -0.76565948185E+01  0.77871589309E+01  0.14200000000E+01 0. -1.
       1023    2    1    2    0    0  0.00000000000E+00  0.00000000000E+00  0.51379962709E+01  0.20660307774E+02  0.20011229639E+02 0.  0.
        -11    1    3    3    0    0  0.90198523147E+01  0.43304556237E+01  0.25258580891E+01  0.10319425422E+02  0.51100000000E-03 0.  1.
         11    1    3    3    0    0 -0.90198523147E+01 -0.43304556237E+01  0.26121381819E+01  0.10340882353E+02  0.51100000000E-03 0. -1.
<mgrwt>
<rscale>  0 0.20011230E+02</rscale>
<asrwt>0</asrwt>
<pdfrwt beam="1">  1        4 0.19844849E-02 0.20011230E+02</pdfrwt>
<pdfrwt beam="2">  1       -4 0.11940240E-02 0.20011230E+02</pdfrwt>
<totfact> 0.12959987E+06</totfact>
</mgrwt>
</event>
<event>
 5    1  0.1154861E-006  0.2000308E+02  0.7818608E-02  0.1745267E+00
          4   -1    0    0  501    0  0.00000000000E+00  0.00000000000E+00  0.56407780130E+00  0.15279344770E+01  0.14200000000E+01 0. -1.
         -4   -1    0    0    0  501 -0.00000000000E+00 -0.00000000000E+00 -0.94659572762E+02  0.94670222961E+02  0.14200000000E+01 0.  1.
       1023    2    1    2    0    0  0.00000000000E+00  0.00000000000E+00 -0.94095494960E+02  0.96198157438E+02  0.20003082826E+02 0.  0.
        -11    1    3    3    0    0 -0.76629393700E+01  0.64254908919E+01 -0.46314331624E+02  0.47381693586E+02  0.51100000000E-03 0. -1.
         11    1    3    3    0    0  0.76629393700E+01 -0.64254908919E+01 -0.47781163336E+02  0.48816463852E+02  0.51100000000E-03 0.  1.
<mgrwt>
<rscale>  0 0.20003083E+02</rscale>
<asrwt>0</asrwt>
<pdfrwt beam="1">  1        4 0.16174334E-03 0.20003083E+02</pdfrwt>
<pdfrwt beam="2">  1       -4 0.14637966E-01 0.20003083E+02</pdfrwt>
<totfact> 0.99078245E+05</totfact>
</mgrwt>
</event>
<event>
 5    1  0.1176983E-006  0.2000068E+02  0.7818608E-02  0.1745315E+00
         -4   -1    0    0    0  501 -0.00000000000E+00  0.00000000000E+00  0.15738343411E+02  0.15802273676E+02  0.14200000000E+01 0.  1.
          4   -1    0    0  501    0  0.00000000000E+00 -0.00000000000E+00 -0.61970633181E+01  0.63576720400E+01  0.14200000000E+01 0. -1.
       1023    2    1    2    0    0  0.00000000000E+00  0.00000000000E+00  0.95412800927E+01  0.22159945716E+02  0.20000679196E+02 0.  0.
        -11    1    3    3    0    0 -0.13920865270E+01 -0.99026397868E+01  0.48607340706E+01  0.11118764122E+02  0.51100000000E-03 0. -1.
         11    1    3    3    0    0  0.13920865270E+01  0.99026397868E+01  0.46805460221E+01  0.11041181593E+02  0.51100000000E-03 0.  1.
<mgrwt>
<rscale>  0 0.20000679E+02</rscale>
<asrwt>0</asrwt>
<pdfrwt beam="2">  1        4 0.97066658E-03 0.20000679E+02</pdfrwt>
<pdfrwt beam="1">  1       -4 0.24385558E-02 0.20000679E+02</pdfrwt>
<totfact> 0.12886058E+06</totfact>
</mgrwt>
</event>
<event>
 5    1  0.1154861E-006  0.2000053E+02  0.7818608E-02  0.1745317E+00
          4   -1    0    0  501    0  0.00000000000E+00  0.00000000000E+00  0.10221858112E+02  0.10320018569E+02  0.14200000000E+01 0. -1.
         -4   -1    0    0    0  501 -0.00000000000E+00 -0.00000000000E+00 -0.95860152959E+01  0.96906186208E+01  0.14200000000E+01 0.  1.
       1023    2    1    2    0    0  0.00000000000E+00  0.00000000000E+00  0.63584281599E+00  0.20010637190E+02  0.20000532609E+02 0.  0.
        -11    1    3    3    0    0 -0.87059650290E+01 -0.49204712596E+01  0.33941242859E+00  0.10006001477E+02  0.51100000000E-03 0. -1.
         11    1    3    3    0    0  0.87059650290E+01  0.49204712596E+01  0.29643038740E+00  0.10004635712E+02  0.51100000000E-03 0.  1.
<mgrwt>
<rscale>  0 0.20000533E+02</rscale>
<asrwt>0</asrwt>
<pdfrwt beam="1">  1        4 0.15881908E-02 0.20000533E+02</pdfrwt>
<pdfrwt beam="2">  1       -4 0.14903688E-02 0.20000533E+02</pdfrwt>
<totfact> 0.13012706E+06</totfact>
</mgrwt>
</event>
<event>
 5    1  0.1154861E-006  0.2000060E+02  0.7818608E-02  0.1745316E+00
         -4   -1    0    0    0  501 -0.00000000000E+00  0.00000000000E+00  0.28572121289E+02  0.28607385671E+02  0.14200000000E+01 0.  1.
          4   -1    0    0  501    0  0.00000000000E+00 -0.00000000000E+00 -0.33170302173E+01  0.36081975366E+01  0.14200000000E+01 0. -1.
       1023    2    1    2    0    0  0.00000000000E+00  0.00000000000E+00  0.25255091071E+02  0.32215583208E+02  0.20000604401E+02 0.  0.
        -11    1    3    3    0    0 -0.32983218688E+01 -0.94406956349E+01  0.12596038784E+02  0.16083092195E+02  0.51100000000E-03 0. -1.
         11    1    3    3    0    0  0.32983218688E+01  0.94406956349E+01  0.12659052287E+02  0.16132491013E+02  0.51100000000E-03 0.  1.
<mgrwt>
<rscale>  0 0.20000604E+02</rscale>
<asrwt>0</asrwt>
<pdfrwt beam="2">  1        4 0.53542248E-03 0.20000604E+02</pdfrwt>
<pdfrwt beam="1">  1       -4 0.44208210E-02 0.20000604E+02</pdfrwt>
<totfact> 0.12340711E+06</totfact>
</mgrwt>
</event>
<event>
 5    1  0.1154861E-006  0.2000113E+02  0.7818608E-02  0.1745306E+00
          4   -1    0    0  501    0  0.00000000000E+00  0.00000000000E+00  0.66275891310E+00  0.15670511724E+01  0.14200000000E+01 0.  1.
         -4   -1    0    0    0  501 -0.00000000000E+00 -0.00000000000E+00 -0.88791619861E+02  0.88802973810E+02  0.14200000000E+01 0. -1.
       1023    2    1    2    0    0  0.00000000000E+00  0.00000000000E+00 -0.88128860947E+02  0.90370024982E+02  0.20001132053E+02 0.  0.
        -11    1    3    3    0    0 -0.12925352795E+01  0.99164782158E+01 -0.43773962042E+02  0.44901747636E+02  0.51100000000E-03 0.  1.
         11    1    3    3    0    0  0.12925352795E+01 -0.99164782158E+01 -0.44354898906E+02  0.45468277347E+02  0.51100000000E-03 0. -1.
<mgrwt>
<rscale>  0 0.20001132E+02</rscale>
<asrwt>0</asrwt>
<pdfrwt beam="1">  1        4 0.17239730E-03 0.20001132E+02</pdfrwt>
<pdfrwt beam="2">  1       -4 0.13730678E-01 0.20001132E+02</pdfrwt>
<totfact> 0.10083310E+06</totfact>
</mgrwt>
</event>
<event>
 5    1  0.1181762E-006  0.2000131E+02  0.7818608E-02  0.1745302E+00
          4   -1    0    0  501    0  0.00000000000E+00  0.00000000000E+00  0.26037650326E+01  0.29658038278E+01  0.14200000000E+01 0.  1.
         -4   -1    0    0    0  501 -0.00000000000E+00 -0.00000000000E+00 -0.35536990803E+02  0.35565349925E+02  0.14200000000E+01 0. -1.
       1023    2    1    2    0    0  0.00000000000E+00  0.00000000000E+00 -0.32933225770E+02  0.38531153753E+02  0.20001311205E+02 0.  0.
        -11    1    3    3    0    0  0.99773880317E+01  0.67407854127E+00 -0.16663621972E+02  0.19433963859E+02  0.51100000000E-03 0. -1.
         11    1    3    3    0    0 -0.99773880317E+01 -0.67407854127E+00 -0.16269603799E+02  0.19097189894E+02  0.51100000000E-03 0.  1.
<mgrwt>
<rscale>  0 0.20001311E+02</rscale>
<asrwt>0</asrwt>
<pdfrwt beam="1">  1        4 0.43060987E-03 0.20001311E+02</pdfrwt>
<pdfrwt beam="2">  1       -4 0.54972596E-02 0.20001311E+02</pdfrwt>
<totfact> 0.12029935E+06</totfact>
</mgrwt>
</event>
<event>
 5    1  0.1154861E-006  0.2000029E+02  0.7818608E-02  0.1745322E+00
         -4   -1    0    0    0  501 -0.00000000000E+00  0.00000000000E+00  0.91796053121E+02  0.91807035507E+02  0.14200000000E+01 0.  1.
          4   -1    0    0  501    0  0.00000000000E+00 -0.00000000000E+00 -0.61084460433E+00  0.15458108327E+01  0.14200000000E+01 0. -1.
       1023    2    1    2    0    0  0.00000000000E+00  0.00000000000E+00  0.91185208516E+02  0.93352846340E+02  0.20000291686E+02 0.  0.
        -11    1    3    3    0    0  0.56720867850E+01  0.82358961543E+01  0.45681491324E+02  0.46763246292E+02  0.51100000000E-03 0.  1.
         11    1    3    3    0    0 -0.56720867850E+01 -0.82358961543E+01  0.45503717193E+02  0.46589600048E+02  0.51100000000E-03 0. -1.
<mgrwt>
<rscale>  0 0.20000292E+02</rscale>
<asrwt>0</asrwt>
<pdfrwt beam="2">  1        4 0.16674136E-03 0.20000292E+02</pdfrwt>
<pdfrwt beam="1">  1       -4 0.14195236E-01 0.20000292E+02</pdfrwt>
<totfact> 0.99944621E+05</totfact>
</mgrwt>
</event>
<event>
 5    1  0.1154861E-006  0.2000273E+02  0.7818608E-02  0.1745274E+00
          4   -1    0    0  501    0  0.00000000000E+00  0.00000000000E+00  0.31863949567E+01  0.34884828823E+01  0.14200000000E+01 0.  1.
         -4   -1    0    0    0  501 -0.00000000000E+00 -0.00000000000E+00 -0.29651414389E+02  0.29685396667E+02  0.14200000000E+01 0. -1.
       1023    2    1    2    0    0  0.00000000000E+00  0.00000000000E+00 -0.26465019433E+02  0.33173879549E+02  0.20002725584E+02 0.  0.
        -11    1    3    3    0    0  0.80062832664E+01  0.59938867365E+01 -0.13227972916E+02  0.16583320466E+02  0.51100000000E-03 0.  1.
         11    1    3    3    0    0 -0.80062832664E+01 -0.59938867365E+01 -0.13237046516E+02  0.16590559083E+02  0.51100000000E-03 0. -1.
<mgrwt>
<rscale>  0 0.20002726E+02</rscale>
<asrwt>0</asrwt>
<pdfrwt beam="1">  1        4 0.51606618E-03 0.20002726E+02</pdfrwt>
<pdfrwt beam="2">  1       -4 0.45876074E-02 0.20002726E+02</pdfrwt>
<totfact> 0.12289538E+06</totfact>
</mgrwt>
</event>
<event>
 5    1  0.1154861E-006  0.2000053E+02  0.7818608E-02  0.1745318E+00
         -4   -1    0    0    0  501 -0.00000000000E+00  0.00000000000E+00  0.28814917597E+02  0.28849885201E+02  0.14200000000E+01 0. -1.
          4   -1    0    0  501    0  0.00000000000E+00 -0.00000000000E+00 -0.32866272358E+01  0.35802679491E+01  0.14200000000E+01 0.  1.
       1023    2    1    2    0    0  0.00000000000E+00  0.00000000000E+00  0.25528290361E+02  0.32430153150E+02  0.20000530608E+02 0.  0.
        -11    1    3    3    0    0 -0.36894283251E+01 -0.92948059550E+01  0.12768366605E+02  0.16218399586E+02  0.51100000000E-03 0.  1.
         11    1    3    3    0    0  0.36894283251E+01  0.92948059550E+01  0.12759923756E+02  0.16211753564E+02  0.51100000000E-03 0. -1.
<mgrwt>
<rscale>  0 0.20000531E+02</rscale>
<asrwt>0</asrwt>
<pdfrwt beam="2">  1        4 0.53091253E-03 0.20000531E+02</pdfrwt>
<pdfrwt beam="1">  1       -4 0.44583417E-02 0.20000531E+02</pdfrwt>
<totfact> 0.12329888E+06</totfact>
</mgrwt>
</event>
<event>
 5    1  0.1166907E-006  0.2000051E+02  0.7818608E-02  0.1745318E+00
         -4   -1    0    0    0  501 -0.00000000000E+00  0.00000000000E+00  0.14128406222E+02  0.14199586697E+02  0.14200000000E+01 0.  1.
          4   -1    0    0  501    0  0.00000000000E+00 -0.00000000000E+00 -0.69170261911E+01  0.70612783070E+01  0.14200000000E+01 0. -1.
       1023    2    1    2    0    0  0.00000000000E+00  0.00000000000E+00  0.72113800309E+01  0.21260865004E+02  0.20000509463E+02 0.  0.
        -11    1    3    3    0    0 -0.25535641977E+01  0.96687116157E+01  0.35839042738E+01  0.10623043091E+02  0.51100000000E-03 0. -1.
         11    1    3    3    0    0  0.25535641977E+01 -0.96687116157E+01  0.36274757571E+01  0.10637821913E+02  0.51100000000E-03 0.  1.
<mgrwt>
<rscale>  0 0.20000509E+02</rscale>
<asrwt>0</asrwt>
<pdfrwt beam="2">  1        4 0.10807296E-02 0.20000509E+02</pdfrwt>
<pdfrwt beam="1">  1       -4 0.21901727E-02 0.20000509E+02</pdfrwt>
<totfact> 0.12938715E+06</totfact>
</mgrwt>
</event>
<event>
 5    1  0.1166185E-006  0.2000050E+02  0.7818608E-02  0.1745318E+00
          4   -1    0    0  501    0  0.00000000000E+00  0.00000000000E+00  0.14390079037E+02  0.14459971463E+02  0.14200000000E+01 0. -1.
         -4   -1    0    0    0  501 -0.00000000000E+00 -0.00000000000E+00 -0.67892150323E+01  0.69361257741E+01  0.14200000000E+01 0.  1.
       1023    2    1    2    0    0  0.00000000000E+00  0.00000000000E+00  0.76008640050E+01  0.21396097237E+02  0.20000496077E+02 0.  0.
        -11    1    3    3    0    0  0.32167468385E+01  0.94687641029E+01  0.37976602492E+01  0.10697063966E+02  0.51100000000E-03 0.  1.
         11    1    3    3    0    0 -0.32167468385E+01 -0.94687641029E+01  0.38032037558E+01  0.10699033271E+02  0.51100000000E-03 0. -1.
<mgrwt>
<rscale>  0 0.20000496E+02</rscale>
<asrwt>0</asrwt>
<pdfrwt beam="1">  1        4 0.22305355E-02 0.20000496E+02</pdfrwt>
<pdfrwt beam="2">  1       -4 0.10611718E-02 0.20000496E+02</pdfrwt>
<totfact> 0.12930796E+06</totfact>
</mgrwt>
</event>
<event>
 5    1  0.1154861E-006  0.2000035E+02  0.7818608E-02  0.1745321E+00
         -4   -1    0    0    0  501 -0.00000000000E+00  0.00000000000E+00  0.59423611585E+01  0.61096690694E+01  0.14200000000E+01 0. -1.
          4   -1    0    0  501    0  0.00000000000E+00 -0.00000000000E+00 -0.16396867741E+02  0.16458240238E+02  0.14200000000E+01 0.  1.
       1023    2    1    2    0    0  0.00000000000E+00  0.00000000000E+00 -0.10454506583E+02  0.22567909307E+02  0.20000345562E+02 0.  0.
        -11    1    3    3    0    0  0.92491135255E+01  0.38022722710E+01 -0.52171631952E+01  0.11279280451E+02  0.51100000000E-03 0. -1.
         11    1    3    3    0    0 -0.92491135255E+01 -0.38022722710E+01 -0.52373433878E+01  0.11288628856E+02  0.51100000000E-03 0.  1.
<mgrwt>
<rscale>  0 0.20000346E+02</rscale>
<asrwt>0</asrwt>
<pdfrwt beam="2">  1        4 0.25401858E-02 0.20000346E+02</pdfrwt>
<pdfrwt beam="1">  1       -4 0.93180021E-03 0.20000346E+02</pdfrwt>
<totfact> 0.12862933E+06</totfact>
</mgrwt>
</event>
<event>
 4    1  0.1154861E-006  0.2005882E+02  0.7818608E-02  0.1744161E+00
         -4   -1    0    0    0  501 -0.00000000000E+00  0.00000000000E+00  0.17352864791E+01  0.22422353054E+01  0.14200000000E+01 0. -1.
          4   -1    0    0  501    0  0.00000000000E+00 -0.00000000000E+00 -0.50060472248E+02  0.50080607841E+02  0.14200000000E+01 0.  1.
        -11    1    1    2    0    0  0.11150820368E+01 -0.99412730450E+01 -0.26037729088E+02  0.27893290484E+02  0.51100000000E-03 0.  1.
         11    1    1    2    0    0 -0.11150820368E+01  0.99412730450E+01 -0.22287456681E+02  0.24429552662E+02  0.51100000000E-03 0. -1.
<mgrwt>
<rscale>  0 0.20058822E+02</rscale>
<asrwt>0</asrwt>
<pdfrwt beam="2">  1        4 0.77421552E-02 0.20058822E+02</pdfrwt>
<pdfrwt beam="1">  1       -4 0.30751214E-03 0.20058822E+02</pdfrwt>
<totfact> 0.11356157E+06</totfact>
</mgrwt>
</event>
<event>
 5    1  0.1154861E-006  0.2000418E+02  0.7818608E-02  0.1745245E+00
          4   -1    0    0  501    0  0.00000000000E+00  0.00000000000E+00  0.20521380501E+02  0.20570451081E+02  0.14200000000E+01 0. -1.
         -4   -1    0    0    0  501 -0.00000000000E+00 -0.00000000000E+00 -0.47154036767E+01  0.49245742795E+01  0.14200000000E+01 0.  1.
       1023    2    1    2    0    0  0.00000000000E+00  0.00000000000E+00  0.15805976825E+02  0.25495025361E+02  0.20004184931E+02 0.  0.
        -11    1    3    3    0    0 -0.96441811044E+01 -0.26506303686E+01  0.79999071000E+01  0.12807598698E+02  0.51100000000E-03 0.  1.
         11    1    3    3    0    0  0.96441811044E+01  0.26506303686E+01  0.78060697247E+01  0.12687426663E+02  0.51100000000E-03 0. -1.
<mgrwt>
<rscale>  0 0.20004185E+02</rscale>
<asrwt>0</asrwt>
<pdfrwt beam="1">  1        4 0.31770002E-02 0.20004185E+02</pdfrwt>
<pdfrwt beam="2">  1       -4 0.74531143E-03 0.20004185E+02</pdfrwt>
<totfact> 0.12692654E+06</totfact>
</mgrwt>
</event>
<event>
 5    1  0.1154861E-006  0.2000132E+02  0.7818608E-02  0.1745302E+00
          4   -1    0    0  501    0  0.00000000000E+00  0.00000000000E+00  0.12199013390E+01  0.18720468148E+01  0.14200000000E+01 0. -1.
         -4   -1    0    0    0  501 -0.00000000000E+00 -0.00000000000E+00 -0.64030972583E+02  0.64046716153E+02  0.14200000000E+01 0.  1.
       1023    2    1    2    0    0  0.00000000000E+00  0.00000000000E+00 -0.62811071244E+02  0.65918762968E+02  0.20001315965E+02 0.  0.
        -11    1    3    3    0    0  0.76402097687E+01 -0.64523345211E+01 -0.31695366927E+02  0.33235548905E+02  0.51100000000E-03 0.  1.
         11    1    3    3    0    0 -0.76402097687E+01  0.64523345211E+01 -0.31115704317E+02  0.32683214063E+02  0.51100000000E-03 0. -1.
<mgrwt>
<rscale>  0 0.20001316E+02</rscale>
<asrwt>0</asrwt>
<pdfrwt beam="1">  1        4 0.23905326E-03 0.20001316E+02</pdfrwt>
<pdfrwt beam="2">  1       -4 0.99022929E-02 0.20001316E+02</pdfrwt>
<totfact> 0.10895860E+06</totfact>
</mgrwt>
</event>
<event>
 5    1  0.1154861E-006  0.2000039E+02  0.7818608E-02  0.1745320E+00
         -4   -1    0    0    0  501 -0.00000000000E+00  0.00000000000E+00  0.90404397691E+02  0.90415549116E+02  0.14200000000E+01 0.  1.
          4   -1    0    0  501    0  0.00000000000E+00 -0.00000000000E+00 -0.63454318659E+00  0.15553279576E+01  0.14200000000E+01 0. -1.
       1023    2    1    2    0    0  0.00000000000E+00  0.00000000000E+00  0.89769854505E+02  0.91970877073E+02  0.20000386293E+02 0.  0.
        -11    1    3    3    0    0 -0.14751548551E+01  0.98907868566E+01  0.44934500457E+02  0.46033825368E+02  0.51100000000E-03 0. -1.
         11    1    3    3    0    0  0.14751548551E+01 -0.98907868566E+01  0.44835354048E+02  0.45937051705E+02  0.51100000000E-03 0.  1.
<mgrwt>
<rscale>  0 0.20000386E+02</rscale>
<asrwt>0</asrwt>
<pdfrwt beam="2">  1        4 0.16930942E-03 0.20000386E+02</pdfrwt>
<pdfrwt beam="1">  1       -4 0.13980057E-01 0.20000386E+02</pdfrwt>
<totfact> 0.10035695E+06</totfact>
</mgrwt>
</event>
<event>
 4    1  0.1154861E-006  0.2001656E+02  0.7818608E-02  0.1744999E+00
         -4   -1    0    0    0  501 -0.00000000000E+00  0.00000000000E+00  0.15797430418E+02  0.15861122527E+02  0.14200000000E+01 0. -1.
          4   -1    0    0  501    0  0.00000000000E+00 -0.00000000000E+00 -0.61835465526E+01  0.63444974559E+01  0.14200000000E+01 0.  1.
        -11    1    1    2    0    0  0.20484627146E+00 -0.99981150565E+01  0.52526682093E+01  0.11295786394E+02  0.51100000000E-03 0. -1.
         11    1    1    2    0    0 -0.20484627146E+00  0.99981150565E+01  0.43612156562E+01  0.10909833589E+02  0.51100000000E-03 0.  1.
<mgrwt>
<rscale>  0 0.20016563E+02</rscale>
<asrwt>0</asrwt>
<pdfrwt beam="2">  1        4 0.96859510E-03 0.20016563E+02</pdfrwt>
<pdfrwt beam="1">  1       -4 0.24476541E-02 0.20016563E+02</pdfrwt>
<totfact> 0.12862572E+06</totfact>
</mgrwt>
</event>
<event>
 5    1  0.1154861E-006  0.2000161E+02  0.7818608E-02  0.1745296E+00
          4   -1    0    0  501    0  0.00000000000E+00  0.00000000000E+00  0.84214353391E+00  0.16509408626E+01  0.14200000000E+01 0.  1.
         -4   -1    0    0    0  501 -0.00000000000E+00 -0.00000000000E+00 -0.79417616595E+02  0.79430310497E+02  0.14200000000E+01 0. -1.
       1023    2    1    2    0    0  0.00000000000E+00  0.00000000000E+00 -0.78575473061E+02  0.81081251360E+02  0.20001608816E+02 0.  0.
        -11    1    3    3    0    0 -0.31173893299E+01 -0.95024798231E+01 -0.39169583739E+02  0.40426124345E+02  0.51100000000E-03 0. -1.
         11    1    3    3    0    0  0.31173893299E+01  0.95024798231E+01 -0.39405889322E+02  0.40655127015E+02  0.51100000000E-03 0.  1.
<mgrwt>
<rscale>  0 0.20001609E+02</rscale>
<asrwt>0</asrwt>
<pdfrwt beam="1">  1        4 0.19275224E-03 0.20001609E+02</pdfrwt>
<pdfrwt beam="2">  1       -4 0.12281283E-01 0.20001609E+02</pdfrwt>
<totfact> 0.10374290E+06</totfact>
</mgrwt>
</event>
<event>
 5    1  0.1154861E-006  0.2000052E+02  0.7818608E-02  0.1745318E+00
         -4   -1    0    0    0  501 -0.00000000000E+00  0.00000000000E+00  0.47675026300E+02  0.47696168952E+02  0.14200000000E+01 0.  1.
          4   -1    0    0  501    0  0.00000000000E+00 -0.00000000000E+00 -0.18331569409E+01  0.23188066693E+01  0.14200000000E+01 0. -1.
       1023    2    1    2    0    0  0.00000000000E+00  0.00000000000E+00  0.45841869359E+02  0.50014975621E+02  0.20000519995E+02 0.  0.
        -11    1    3    3    0    0 -0.60747863732E+01 -0.79434898641E+01  0.22780828167E+02  0.24879071384E+02  0.51100000000E-03 0.  1.
         11    1    3    3    0    0  0.60747863732E+01  0.79434898641E+01  0.23061041192E+02  0.25135904237E+02  0.51100000000E-03 0. -1.
<mgrwt>
<rscale>  0 0.20000520E+02</rscale>
<asrwt>0</asrwt>
<pdfrwt beam="2">  1        4 0.32100822E-03 0.20000520E+02</pdfrwt>
<pdfrwt beam="1">  1       -4 0.73736023E-02 0.20000520E+02</pdfrwt>
<totfact> 0.11518983E+06</totfact>
</mgrwt>
</event>
<event>
 5    1  0.1154861E-006  0.2000108E+02  0.7818608E-02  0.1745307E+00
         -4   -1    0    0    0  501 -0.00000000000E+00  0.00000000000E+00  0.76940875274E+02  0.76953977727E+02  0.14200000000E+01 0.  1.
          4   -1    0    0  501    0  0.00000000000E+00 -0.00000000000E+00 -0.89478369453E+00  0.16784033663E+01  0.14200000000E+01 0. -1.
       1023    2    1    2    0    0  0.00000000000E+00  0.00000000000E+00  0.76046091580E+02  0.78632381093E+02  0.20001082766E+02 0.  0.
        -11    1    3    3    0    0  0.76367117628E+01 -0.64568711548E+01  0.38088363373E+02  0.39379359776E+02  0.51100000000E-03 0.  1.
         11    1    3    3    0    0 -0.76367117628E+01  0.64568711548E+01  0.37957728207E+02  0.39253021318E+02  0.51100000000E-03 0. -1.
<mgrwt>
<rscale>  0 0.20001083E+02</rscale>
<asrwt>0</asrwt>
<pdfrwt beam="2">  1        4 0.19894542E-03 0.20001083E+02</pdfrwt>
<pdfrwt beam="1">  1       -4 0.11898340E-01 0.20001083E+02</pdfrwt>
<totfact> 0.10454959E+06</totfact>
</mgrwt>
</event>
<event>
 5    1  0.1154861E-006  0.2000602E+02  0.7818608E-02  0.1745208E+00
         -4   -1    0    0    0  501 -0.00000000000E+00  0.00000000000E+00  0.99309594021E+00  0.17328126115E+01  0.14200000000E+01 0. -1.
          4   -1    0    0  501    0  0.00000000000E+00 -0.00000000000E+00 -0.72665686982E+02  0.72679560157E+02  0.14200000000E+01 0.  1.
       1023    2    1    2    0    0  0.00000000000E+00  0.00000000000E+00 -0.71672591042E+02  0.74412372769E+02  0.20006021952E+02 0.  0.
        -11    1    3    3    0    0  0.96739891712E+01  0.25393576085E+01 -0.36434022271E+02  0.37781905493E+02  0.51100000000E-03 0.  1.
         11    1    3    3    0    0 -0.96739891712E+01 -0.25393576085E+01 -0.35238568771E+02  0.36630467276E+02  0.51100000000E-03 0. -1.
<mgrwt>
<rscale>  0 0.20006022E+02</rscale>
<asrwt>0</asrwt>
<pdfrwt beam="2">  1        4 0.11237302E-01 0.20006022E+02</pdfrwt>
<pdfrwt beam="1">  1       -4 0.21075250E-03 0.20006022E+02</pdfrwt>
<totfact> 0.10591316E+06</totfact>
</mgrwt>
</event>
<event>
 5    1  0.1154861E-006  0.2000407E+02  0.7818608E-02  0.1745247E+00
         -4   -1    0    0    0  501 -0.00000000000E+00  0.00000000000E+00  0.52198037990E+02  0.52217349320E+02  0.14200000000E+01 0. -1.
          4   -1    0    0  501    0  0.00000000000E+00 -0.00000000000E+00 -0.16310896976E+01  0.21626034314E+01  0.14200000000E+01 0.  1.
       1023    2    1    2    0    0  0.00000000000E+00  0.00000000000E+00  0.50566948292E+02  0.54379952751E+02  0.20004074626E+02 0.  0.
        -11    1    3    3    0    0 -0.25725359675E+01  0.96634755512E+01  0.24739451711E+02  0.26684099615E+02  0.51100000000E-03 0. -1.
         11    1    3    3    0    0  0.25725359675E+01 -0.96634755512E+01  0.25827496581E+02  0.27695853136E+02  0.51100000000E-03 0.  1.
<mgrwt>
<rscale>  0 0.20004075E+02</rscale>
<asrwt>0</asrwt>
<pdfrwt beam="2">  1        4 0.29330806E-03 0.20004075E+02</pdfrwt>
<pdfrwt beam="1">  1       -4 0.80728379E-02 0.20004075E+02</pdfrwt>
<totfact> 0.11335193E+06</totfact>
</mgrwt>
</event>
<event>
 5    1  0.1155764E-006  0.2000086E+02  0.7818608E-02  0.1745311E+00
         -4   -1    0    0    0  501 -0.00000000000E+00  0.00000000000E+00  0.28382371229E+01  0.31736398607E+01  0.14200000000E+01 0. -1.
          4   -1    0    0  501    0  0.00000000000E+00 -0.00000000000E+00 -0.32918792907E+02  0.32949405556E+02  0.14200000000E+01 0.  1.
       1023    2    1    2    0    0  0.00000000000E+00  0.00000000000E+00 -0.30080555784E+02  0.36123045416E+02  0.20000864328E+02 0.  0.
        -11    1    3    3    0    0  0.15401618143E+01 -0.98807090764E+01 -0.14877401074E+02  0.17925891142E+02  0.51100000000E-03 0. -1.
         11    1    3    3    0    0 -0.15401618143E+01  0.98807090764E+01 -0.15203154711E+02  0.18197154274E+02  0.51100000000E-03 0.  1.
<mgrwt>
<rscale>  0 0.20000864E+02</rscale>
<asrwt>0</asrwt>
<pdfrwt beam="2">  1        4 0.50925845E-02 0.20000864E+02</pdfrwt>
<pdfrwt beam="1">  1       -4 0.46480692E-03 0.20000864E+02</pdfrwt>
<totfact> 0.12145959E+06</totfact>
</mgrwt>
</event>
<event>
 5    1  0.1159002E-006  0.2000040E+02  0.7818608E-02  0.1745320E+00
          4   -1    0    0  501    0  0.00000000000E+00  0.00000000000E+00  0.15412821118E+02  0.15478095969E+02  0.14200000000E+01 0.  1.
         -4   -1    0    0    0  501 -0.00000000000E+00 -0.00000000000E+00 -0.63305619069E+01  0.64878666800E+01  0.14200000000E+01 0. -1.
       1023    2    1    2    0    0  0.00000000000E+00  0.00000000000E+00  0.90822592113E+01  0.21965962649E+02  0.20000402064E+02 0.  0.
        -11    1    3    3    0    0 -0.25643128415E+01 -0.96657870148E+01  0.45737365787E+01  0.10996463319E+02  0.51100000000E-03 0.  1.
         11    1    3    3    0    0  0.25643128415E+01  0.96657870148E+01  0.45085226326E+01  0.10969499330E+02  0.51100000000E-03 0. -1.
<mgrwt>
<rscale>  0 0.20000402E+02</rscale>
<asrwt>0</asrwt>
<pdfrwt beam="1">  1        4 0.23883247E-02 0.20000402E+02</pdfrwt>
<pdfrwt beam="2">  1       -4 0.99105413E-03 0.20000402E+02</pdfrwt>
<totfact> 0.12897671E+06</totfact>
</mgrwt>
</event>
<event>
 5    1  0.1154861E-006  0.2000220E+02  0.7818608E-02  0.1745284E+00
          4   -1    0    0  501    0  0.00000000000E+00  0.00000000000E+00  0.30852265196E+01  0.33963248780E+01  0.14200000000E+01 0. -1.
         -4   -1    0    0    0  501 -0.00000000000E+00 -0.00000000000E+00 -0.30535214037E+02  0.30568213822E+02  0.14200000000E+01 0.  1.
       1023    2    1    2    0    0  0.00000000000E+00  0.00000000000E+00 -0.27449987517E+02  0.33964538700E+02  0.20002201739E+02 0.  0.
        -11    1    3    3    0    0 -0.80848369338E+00  0.99682893978E+01 -0.13657520611E+02  0.16927737856E+02  0.51100000000E-03 0.  1.
         11    1    3    3    0    0  0.80848369338E+00 -0.99682893978E+01 -0.13792466906E+02  0.17036800845E+02  0.51100000000E-03 0. -1.
<mgrwt>
<rscale>  0 0.20002202E+02</rscale>
<asrwt>0</asrwt>
<pdfrwt beam="1">  1        4 0.50111934E-03 0.20002202E+02</pdfrwt>
<pdfrwt beam="2">  1       -4 0.47241941E-02 0.20002202E+02</pdfrwt>
<totfact> 0.12250579E+06</totfact>
</mgrwt>
</event>
<event>
 4    1  0.1209550E-006  0.2009668E+02  0.7818608E-02  0.1743412E+00
          4   -1    0    0  501    0  0.00000000000E+00  0.00000000000E+00  0.85979992146E+02  0.85991717330E+02  0.14200000000E+01 0. -1.
         -4   -1    0    0    0  501 -0.00000000000E+00 -0.00000000000E+00 -0.72886229050E+00  0.15961329013E+01  0.14200000000E+01 0.  1.
        -11    1    1    2    0    0 -0.41676919160E+01  0.91021440457E+01  0.38850114828E+02  0.40119198702E+02  0.51100000000E-03 0.  1.
         11    1    1    2    0    0  0.41676919160E+01 -0.91021440457E+01  0.46401015028E+02  0.47468651529E+02  0.51100000000E-03 0. -1.
<mgrwt>
<rscale>  0 0.20096676E+02</rscale>
<asrwt>0</asrwt>
<pdfrwt beam="1">  1        4 0.13295307E-01 0.20096676E+02</pdfrwt>
<pdfrwt beam="2">  1       -4 0.17974771E-03 0.20096676E+02</pdfrwt>
<totfact> 0.10072161E+06</totfact>
</mgrwt>
</event>
<event>
 5    1  0.1154861E-006  0.2000890E+02  0.7818608E-02  0.1745151E+00
         -4   -1    0    0    0  501 -0.00000000000E+00  0.00000000000E+00  0.46068373991E+01  0.48207209856E+01  0.14200000000E+01 0. -1.
          4   -1    0    0  501    0  0.00000000000E+00 -0.00000000000E+00 -0.20994866511E+02  0.21042832980E+02  0.14200000000E+01 0.  1.
       1023    2    1    2    0    0  0.00000000000E+00  0.00000000000E+00 -0.16388029112E+02  0.25863553965E+02  0.20008896160E+02 0.  0.
        -11    1    3    3    0    0  0.87492971998E+01 -0.48479860367E+01 -0.79494049878E+01  0.12776784025E+02  0.51100000000E-03 0.  1.
         11    1    3    3    0    0 -0.87492971998E+01  0.48479860367E+01 -0.84386241242E+01  0.13086769940E+02  0.51100000000E-03 0. -1.
<mgrwt>
<rscale>  0 0.20008896E+02</rscale>
<asrwt>0</asrwt>
<pdfrwt beam="2">  1        4 0.32501217E-02 0.20008896E+02</pdfrwt>
<pdfrwt beam="1">  1       -4 0.72888654E-03 0.20008896E+02</pdfrwt>
<totfact> 0.12666214E+06</totfact>
</mgrwt>
</event>
<event>
 5    1  0.1164041E-006  0.2000058E+02  0.7818608E-02  0.1745317E+00
          4   -1    0    0  501    0  0.00000000000E+00  0.00000000000E+00  0.30343400331E+02  0.30376608495E+02  0.14200000000E+01 0.  1.
         -4   -1    0    0    0  501 -0.00000000000E+00 -0.00000000000E+00 -0.31061075992E+01  0.34153044400E+01  0.14200000000E+01 0. -1.
       1023    2    1    2    0    0  0.00000000000E+00  0.00000000000E+00  0.27237292732E+02  0.33791912935E+02  0.20000581603E+02 0.  0.
        -11    1    3    3    0    0  0.95201272379E+01  0.30607248795E+01  0.13499698991E+02  0.16800081325E+02  0.51100000000E-03 0.  1.
         11    1    3    3    0    0 -0.95201272379E+01 -0.30607248795E+01  0.13737593741E+02  0.16991831610E+02  0.51100000000E-03 0. -1.
<mgrwt>
<rscale>  0 0.20000582E+02</rscale>
<asrwt>0</asrwt>
<pdfrwt beam="1">  1        4 0.46945544E-02 0.20000582E+02</pdfrwt>
<pdfrwt beam="2">  1       -4 0.50420154E-03 0.20000582E+02</pdfrwt>
<totfact> 0.12261211E+06</totfact>
</mgrwt>
</event>
<event>
 5    1  0.1154861E-006  0.2000195E+02  0.7818608E-02  0.1745289E+00
         -4   -1    0    0    0  501 -0.00000000000E+00  0.00000000000E+00  0.12020114606E+01  0.18604385374E+01  0.14200000000E+01 0.  1.
          4   -1    0    0  501    0  0.00000000000E+00 -0.00000000000E+00 -0.64652033731E+02  0.64667626101E+02  0.14200000000E+01 0. -1.
       1023    2    1    2    0    0  0.00000000000E+00  0.00000000000E+00 -0.63450022270E+02  0.66528064639E+02  0.20001951366E+02 0.  0.
        -11    1    3    3    0    0 -0.55252158827E+01  0.83361495921E+01 -0.31689533306E+02  0.33230195937E+02  0.51100000000E-03 0. -1.
         11    1    3    3    0    0  0.55252158827E+01 -0.83361495921E+01 -0.31760488965E+02  0.33297868702E+02  0.51100000000E-03 0.  1.
<mgrwt>
<rscale>  0 0.20001951E+02</rscale>
<asrwt>0</asrwt>
<pdfrwt beam="2">  1        4 0.99983123E-02 0.20001951E+02</pdfrwt>
<pdfrwt beam="1">  1       -4 0.23677254E-03 0.20001951E+02</pdfrwt>
<totfact> 0.10872985E+06</totfact>
</mgrwt>
</event>
<event>
 5    1  0.1154861E-006  0.2000037E+02  0.7818608E-02  0.1745321E+00
          4   -1    0    0  501    0  0.00000000000E+00  0.00000000000E+00  0.68505084513E+01  0.69961322201E+01  0.14200000000E+01 0.  1.
         -4   -1    0    0    0  501 -0.00000000000E+00 -0.00000000000E+00 -0.14263223634E+02  0.14333734629E+02  0.14200000000E+01 0. -1.
       1023    2    1    2    0    0  0.00000000000E+00  0.00000000000E+00 -0.74127151825E+01  0.21329866849E+02  0.20000371833E+02 0.  0.
        -11    1    3    3    0    0  0.92686186144E+01 -0.37544100313E+01 -0.37371267129E+01  0.10675626540E+02  0.51100000000E-03 0.  1.
         11    1    3    3    0    0 -0.92686186144E+01  0.37544100313E+01 -0.36755884695E+01  0.10654240309E+02  0.51100000000E-03 0. -1.
<mgrwt>
<rscale>  0 0.20000372E+02</rscale>
<asrwt>0</asrwt>
<pdfrwt beam="1">  1        4 0.10705501E-02 0.20000372E+02</pdfrwt>
<pdfrwt beam="2">  1       -4 0.22109678E-02 0.20000372E+02</pdfrwt>
<totfact> 0.12934845E+06</totfact>
</mgrwt>
</event>
<event>
 4    1  0.1164027E-006  0.2002325E+02  0.7818608E-02  0.1744866E+00
          4   -1    0    0  501    0  0.00000000000E+00  0.00000000000E+00  0.22464881764E+01  0.26576510543E+01  0.14200000000E+01 0.  1.
         -4   -1    0    0    0  501 -0.00000000000E+00 -0.00000000000E+00 -0.40452072987E+02  0.40476988635E+02  0.14200000000E+01 0. -1.
        -11    1    1    2    0    0 -0.49256495041E+01  0.87053919246E+01 -0.20033697461E+02  0.22391849093E+02  0.51100000000E-03 0. -1.
         11    1    1    2    0    0  0.49256495041E+01 -0.87053919246E+01 -0.18171887350E+02  0.20742790596E+02  0.51100000000E-03 0.  1.
<mgrwt>
<rscale>  0 0.20023247E+02</rscale>
<asrwt>0</asrwt>
<pdfrwt beam="1">  1        4 0.37915810E-03 0.20023247E+02</pdfrwt>
<pdfrwt beam="2">  1       -4 0.62569398E-02 0.20023247E+02</pdfrwt>
<totfact> 0.11791361E+06</totfact>
</mgrwt>
</event>
<event>
 5    1  0.1154861E-006  0.2000174E+02  0.7818608E-02  0.1745294E+00
         -4   -1    0    0    0  501 -0.00000000000E+00  0.00000000000E+00  0.34836311929E+02  0.34865240983E+02  0.14200000000E+01 0.  1.
          4   -1    0    0  501    0  0.00000000000E+00 -0.00000000000E+00 -0.26634265721E+01  0.30183175951E+01  0.14200000000E+01 0. -1.
       1023    2    1    2    0    0  0.00000000000E+00  0.00000000000E+00  0.32172885357E+02  0.37883558578E+02  0.20001736384E+02 0.  0.
        -11    1    3    3    0    0  0.22395781234E+01  0.97468720541E+01  0.16064086976E+02  0.18922793548E+02  0.51100000000E-03 0.  1.
         11    1    3    3    0    0 -0.22395781234E+01 -0.97468720541E+01  0.16108798380E+02  0.18960765030E+02  0.51100000000E-03 0. -1.
<mgrwt>
<rscale>  0 0.20001736E+02</rscale>
<asrwt>0</asrwt>
<pdfrwt beam="2">  1        4 0.43928256E-03 0.20001736E+02</pdfrwt>
<pdfrwt beam="1">  1       -4 0.53889572E-02 0.20001736E+02</pdfrwt>
<totfact> 0.12060159E+06</totfact>
</mgrwt>
</event>
<event>
 5    1  0.1183491E-006  0.2000140E+02  0.7818608E-02  0.1745300E+00
         -4   -1    0    0    0  501 -0.00000000000E+00  0.00000000000E+00  0.14878565237E+02  0.14946173540E+02  0.14200000000E+01 0.  1.
          4   -1    0    0  501    0  0.00000000000E+00 -0.00000000000E+00 -0.65630692698E+01  0.67149295037E+01  0.14200000000E+01 0. -1.
       1023    2    1    2    0    0  0.00000000000E+00  0.00000000000E+00  0.83154959669E+01  0.21661103044E+02  0.20001397749E+02 0.  0.
        -11    1    3    3    0    0 -0.76246490664E-01 -0.10000351403E+02  0.41942496138E+01  0.10844564158E+02  0.51100000000E-03 0. -1.
         11    1    3    3    0    0  0.76246490664E-01  0.10000351403E+02  0.41212463530E+01  0.10816538886E+02  0.51100000000E-03 0.  1.
<mgrwt>
<rscale>  0 0.20001398E+02</rscale>
<asrwt>0</asrwt>
<pdfrwt beam="2">  1        4 0.10265852E-02 0.20001398E+02</pdfrwt>
<pdfrwt beam="1">  1       -4 0.23058922E-02 0.20001398E+02</pdfrwt>
<totfact> 0.12914109E+06</totfact>
</mgrwt>
</event>
<event>
 5    1  0.1160805E-006  0.2000133E+02  0.7818608E-02  0.1745302E+00
          4   -1    0    0  501    0  0.00000000000E+00  0.00000000000E+00  0.28688760003E+02  0.28723881188E+02  0.14200000000E+01 0.  1.
         -4   -1    0    0    0  501 -0.00000000000E+00 -0.00000000000E+00 -0.33026398274E+01  0.35949728552E+01  0.14200000000E+01 0. -1.
       1023    2    1    2    0    0  0.00000000000E+00  0.00000000000E+00  0.25386120176E+02  0.32318854044E+02  0.20001330683E+02 0.  0.
        -11    1    3    3    0    0 -0.62879853819E+01  0.77760225584E+01  0.12548354634E+02  0.16045762408E+02  0.51100000000E-03 0.  1.
         11    1    3    3    0    0  0.62879853819E+01 -0.77760225584E+01  0.12837765542E+02  0.16273091635E+02  0.51100000000E-03 0. -1.
<mgrwt>
<rscale>  0 0.20001331E+02</rscale>
<asrwt>0</asrwt>
<pdfrwt beam="1">  1        4 0.44388440E-02 0.20001331E+02</pdfrwt>
<pdfrwt beam="2">  1       -4 0.53328724E-03 0.20001331E+02</pdfrwt>
<totfact> 0.12334545E+06</totfact>
</mgrwt>
</event>
<event>
 5    1  0.1154861E-006  0.2000198E+02  0.7818608E-02  0.1745289E+00
         -4   -1    0    0    0  501 -0.00000000000E+00  0.00000000000E+00  0.22761007297E+02  0.22805259332E+02  0.14200000000E+01 0. -1.
          4   -1    0    0  501    0  0.00000000000E+00 -0.00000000000E+00 -0.42297191489E+01  0.44617176153E+01  0.14200000000E+01 0.  1.
       1023    2    1    2    0    0  0.00000000000E+00  0.00000000000E+00  0.18531288148E+02  0.27266976947E+02  0.20001984686E+02 0.  0.
        -11    1    3    3    0    0 -0.75570055799E+01  0.65505051922E+01  0.93323716599E+01  0.13678838133E+02  0.51100000000E-03 0.  1.
         11    1    3    3    0    0  0.75570055799E+01 -0.65505051922E+01  0.91989164885E+01  0.13588138814E+02  0.51100000000E-03 0. -1.
<mgrwt>
<rscale>  0 0.20001985E+02</rscale>
<asrwt>0</asrwt>
<pdfrwt beam="2">  1        4 0.67197607E-03 0.20001985E+02</pdfrwt>
<pdfrwt beam="1">  1       -4 0.35229434E-02 0.20001985E+02</pdfrwt>
<totfact> 0.12598481E+06</totfact>
</mgrwt>
</event>
<event>
 5    1  0.1162680E-006  0.2000071E+02  0.7818608E-02  0.1745314E+00
         -4   -1    0    0    0  501 -0.00000000000E+00  0.00000000000E+00  0.84628583889E+01  0.85811637969E+01  0.14200000000E+01 0. -1.
          4   -1    0    0  501    0  0.00000000000E+00 -0.00000000000E+00 -0.11573146935E+02  0.11659936963E+02  0.14200000000E+01 0. -1.
       1023    2    1    2    0    0  0.00000000000E+00  0.00000000000E+00 -0.31102885462E+01  0.20241100760E+02  0.20000706616E+02 0.  0.
        -11    1    3    3    0    0  0.51018964460E+01  0.86009467969E+01 -0.15168359894E+01  0.10114663851E+02  0.51100000000E-03 0. -1.
         11    1    3    3    0    0 -0.51018964460E+01 -0.86009467969E+01 -0.15934525568E+01  0.10126436908E+02  0.51100000000E-03 0.  1.
<mgrwt>
<rscale>  0 0.20000707E+02</rscale>
<asrwt>0</asrwt>
<pdfrwt beam="2">  1        4 0.17962607E-02 0.20000707E+02</pdfrwt>
<pdfrwt beam="1">  1       -4 0.13177548E-02 0.20000707E+02</pdfrwt>
<totfact> 0.12998756E+06</totfact>
</mgrwt>
</event>
<event>
 5    1  0.1154861E-006  0.2000104E+02  0.7818608E-02  0.1745307E+00
          4   -1    0    0  501    0  0.00000000000E+00  0.00000000000E+00  0.53053922705E+02  0.53072922611E+02  0.14200000000E+01 0. -1.
         -4   -1    0    0    0  501 -0.00000000000E+00 -0.00000000000E+00 -0.15954899249E+01  0.21358811064E+01  0.14200000000E+01 0.  1.
       1023    2    1    2    0    0  0.00000000000E+00  0.00000000000E+00  0.51458432780E+02  0.55208803717E+02  0.20001042564E+02 0.  0.
        -11    1    3    3    0    0 -0.81995176850E+01  0.57250758928E+01  0.25610767727E+02  0.27493999493E+02  0.51100000000E-03 0.  1.
         11    1    3    3    0    0  0.81995176850E+01 -0.57250758928E+01  0.25847665053E+02  0.27714804224E+02  0.51100000000E-03 0. -1.
<mgrwt>
<rscale>  0 0.20001043E+02</rscale>
<asrwt>0</asrwt>
<pdfrwt beam="1">  1        4 0.82051708E-02 0.20001043E+02</pdfrwt>
<pdfrwt beam="2">  1       -4 0.28849012E-03 0.20001043E+02</pdfrwt>
<totfact> 0.11305357E+06</totfact>
</mgrwt>
</event>
<event>
 5    1  0.1154861E-006  0.2000154E+02  0.7818608E-02  0.1745297E+00
          4   -1    0    0  501    0  0.00000000000E+00  0.00000000000E+00  0.62625821699E+02  0.62641918421E+02  0.14200000000E+01 0. -1.
         -4   -1    0    0    0  501 -0.00000000000E+00 -0.00000000000E+00 -0.12617767223E+01  0.18996000887E+01  0.14200000000E+01 0.  1.
       1023    2    1    2    0    0  0.00000000000E+00  0.00000000000E+00  0.61364044976E+02  0.64541518510E+02  0.20001539832E+02 0.  0.
        -11    1    3    3    0    0  0.50383138593E-02  0.10000148775E+02  0.30322730742E+02  0.31929155968E+02  0.51100000000E-03 0.  1.
         11    1    3    3    0    0 -0.50383138593E-02 -0.10000148775E+02  0.31041314235E+02  0.32612362542E+02  0.51100000000E-03 0. -1.
<mgrwt>
<rscale>  0 0.20001540E+02</rscale>
<asrwt>0</asrwt>
<pdfrwt beam="1">  1        4 0.96850425E-02 0.20001540E+02</pdfrwt>
<pdfrwt beam="2">  1       -4 0.24442106E-03 0.20001540E+02</pdfrwt>
<totfact> 0.10946170E+06</totfact>
</mgrwt>
</event>
<event>
 5    1  0.1154861E-006  0.2000039E+02  0.7818608E-02  0.1745320E+00
         -4   -1    0    0    0  501 -0.00000000000E+00  0.00000000000E+00  0.27271171427E+02  0.27308115845E+02  0.14200000000E+01 0. -1.
          4   -1    0    0  501    0  0.00000000000E+00 -0.00000000000E+00 -0.34885327020E+01  0.37664652412E+01  0.14200000000E+01 0.  1.
       1023    2    1    2    0    0  0.00000000000E+00  0.00000000000E+00  0.23782638725E+02  0.31074581086E+02  0.20000392120E+02 0.  0.
        -11    1    3    3    0    0  0.96147047871E+01 -0.27495491554E+01  0.11834184741E+02  0.15493563097E+02  0.51100000000E-03 0. -1.
         11    1    3    3    0    0 -0.96147047871E+01  0.27495491554E+01  0.11948453984E+02  0.15581017989E+02  0.51100000000E-03 0.  1.
<mgrwt>
<rscale>  0 0.20000392E+02</rscale>
<asrwt>0</asrwt>
<pdfrwt beam="2">  1        4 0.56091864E-03 0.20000392E+02</pdfrwt>
<pdfrwt beam="1">  1       -4 0.42197862E-02 0.20000392E+02</pdfrwt>
<totfact> 0.12399496E+06</totfact>
</mgrwt>
</event>
<event>
 5    1  0.1154861E-006  0.2000018E+02  0.7818608E-02  0.1745325E+00
          4   -1    0    0  501    0  0.00000000000E+00  0.00000000000E+00  0.41103643777E+01  0.43487349100E+01  0.14200000000E+01 0. -1.
         -4   -1    0    0    0  501 -0.00000000000E+00 -0.00000000000E+00 -0.23383081482E+02  0.23426158447E+02  0.14200000000E+01 0.  1.
       1023    2    1    2    0    0  0.00000000000E+00  0.00000000000E+00 -0.19272717104E+02  0.27774893357E+02  0.20000176910E+02 0.  0.
        -11    1    3    3    0    0 -0.76156714343E+01  0.64809518448E+01 -0.96028951881E+01  0.13864226789E+02  0.51100000000E-03 0. -1.
         11    1    3    3    0    0  0.76156714343E+01 -0.64809518448E+01 -0.96698219160E+01  0.13910666568E+02  0.51100000000E-03 0.  1.
<mgrwt>
<rscale>  0 0.20000177E+02</rscale>
<asrwt>0</asrwt>
<pdfrwt beam="1">  1        4 0.65401357E-03 0.20000177E+02</pdfrwt>
<pdfrwt beam="2">  1       -4 0.36190469E-02 0.20000177E+02</pdfrwt>
<totfact> 0.12573407E+06</totfact>
</mgrwt>
</event>
<event>
 5    1  0.1154861E-006  0.2000029E+02  0.7818608E-02  0.1745322E+00
          4   -1    0    0  501    0  0.00000000000E+00  0.00000000000E+00  0.10184107706E+01  0.17474439899E+01  0.14200000000E+01 0. -1.
         -4   -1    0    0    0  501 -0.00000000000E+00 -0.00000000000E+00 -0.71574556373E+02  0.71588640998E+02  0.14200000000E+01 0.  1.
       1023    2    1    2    0    0  0.00000000000E+00  0.00000000000E+00 -0.70556145602E+02  0.73336084988E+02  0.20000291976E+02 0.  0.
        -11    1    3    3    0    0 -0.60699245816E+01 -0.79472259770E+01 -0.35193310736E+02  0.36586493492E+02  0.51100000000E-03 0. -1.
         11    1    3    3    0    0  0.60699245816E+01  0.79472259770E+01 -0.35362834866E+02  0.36749591496E+02  0.51100000000E-03 0.  1.
<mgrwt>
<rscale>  0 0.20000292E+02</rscale>
<asrwt>0</asrwt>
<pdfrwt beam="1">  1        4 0.21384155E-03 0.20000292E+02</pdfrwt>
<pdfrwt beam="2">  1       -4 0.11068630E-01 0.20000292E+02</pdfrwt>
<totfact> 0.10634261E+06</totfact>
</mgrwt>
</event>
<event>
 5    1  0.1154861E-006  0.2000006E+02  0.7818608E-02  0.1745327E+00
          4   -1    0    0  501    0  0.00000000000E+00  0.00000000000E+00  0.13530907519E+02  0.13605214378E+02  0.14200000000E+01 0. -1.
         -4   -1    0    0    0  501 -0.00000000000E+00 -0.00000000000E+00 -0.72267028043E+01  0.73648919491E+01  0.14200000000E+01 0.  1.
       1023    2    1    2    0    0  0.00000000000E+00  0.00000000000E+00  0.63042047142E+01  0.20970106327E+02  0.20000059057E+02 0.  0.
        -11    1    3    3    0    0 -0.13680258313E+01 -0.99060022843E+01  0.31367504830E+01  0.10480437958E+02  0.51100000000E-03 0.  1.
         11    1    3    3    0    0  0.13680258313E+01  0.99060022843E+01  0.31674542313E+01  0.10489668369E+02  0.51100000000E-03 0. -1.
<mgrwt>
<rscale>  0 0.20000059E+02</rscale>
<asrwt>0</asrwt>
<pdfrwt beam="1">  1        4 0.20980239E-02 0.20000059E+02</pdfrwt>
<pdfrwt beam="2">  1       -4 0.11281463E-02 0.20000059E+02</pdfrwt>
<totfact> 0.12956437E+06</totfact>
</mgrwt>
</event>
<event>
 5    1  0.1154861E-006  0.2000204E+02  0.7818608E-02  0.1745288E+00
         -4   -1    0    0    0  501 -0.00000000000E+00  0.00000000000E+00  0.27268629749E+00  0.14459453022E+01  0.14200000000E+01 0. -1.
          4   -1    0    0  501    0  0.00000000000E+00 -0.00000000000E+00 -0.11521473712E+03  0.11522348740E+03  0.14200000000E+01 0.  1.
       1023    2    1    2    0    0  0.00000000000E+00  0.00000000000E+00 -0.11494205082E+03  0.11666943270E+03  0.20002036916E+02 0.  0.
        -11    1    3    3    0    0 -0.23500768422E+01 -0.97207079039E+01 -0.57044522178E+02  0.57914527833E+02  0.51100000000E-03 0. -1.
         11    1    3    3    0    0  0.23500768422E+01  0.97207079039E+01 -0.57897528642E+02  0.58754904871E+02  0.51100000000E-03 0.  1.
<mgrwt>
<rscale>  0 0.20002037E+02</rscale>
<asrwt>0</asrwt>
<pdfrwt beam="2">  1        4 0.17816256E-01 0.20002037E+02</pdfrwt>
<pdfrwt beam="1">  1       -4 0.13287562E-03 0.20002037E+02</pdfrwt>
<totfact> 0.93486159E+05</totfact>
</mgrwt>
</event>
<event>
 5    1  0.1154861E-006  0.2000007E+02  0.7818608E-02  0.1745327E+00
          4   -1    0    0  501    0  0.00000000000E+00  0.00000000000E+00  0.50280793604E+01  0.52247470804E+01  0.14200000000E+01 0.  1.
         -4   -1    0    0    0  501 -0.00000000000E+00 -0.00000000000E+00 -0.19283681024E+02  0.19335892889E+02  0.14200000000E+01 0. -1.
       1023    2    1    2    0    0  0.00000000000E+00  0.00000000000E+00 -0.14255601663E+02  0.24560639969E+02  0.20000071423E+02 0.  0.
        -11    1    3    3    0    0  0.25280573887E+01  0.96751766779E+01 -0.70978192642E+01  0.12262917943E+02  0.51100000000E-03 0.  1.
         11    1    3    3    0    0 -0.25280573887E+01 -0.96751766779E+01 -0.71577823989E+01  0.12297722026E+02  0.51100000000E-03 0. -1.
<mgrwt>
<rscale>  0 0.20000071E+02</rscale>
<asrwt>0</asrwt>
<pdfrwt beam="1">  1        4 0.79269526E-03 0.20000071E+02</pdfrwt>
<pdfrwt beam="2">  1       -4 0.29858647E-02 0.20000071E+02</pdfrwt>
<totfact> 0.12750101E+06</totfact>
</mgrwt>
</event>
<event>
 5    1  0.1154861E-006  0.2000032E+02  0.7818608E-02  0.1745322E+00
          4   -1    0    0  501    0  0.00000000000E+00  0.00000000000E+00  0.85854741296E+01  0.87021127337E+01  0.14200000000E+01 0.  1.
         -4   -1    0    0    0  501 -0.00000000000E+00 -0.00000000000E+00 -0.11408413968E+02  0.11496447680E+02  0.14200000000E+01 0. -1.
       1023    2    1    2    0    0  0.00000000000E+00  0.00000000000E+00 -0.28229398382E+01  0.20198560414E+02  0.20000321334E+02 0.  0.
        -11    1    3    3    0    0  0.19445639103E+01 -0.98092689513E+01 -0.14000912971E+01  0.10097689937E+02  0.51100000000E-03 0. -1.
         11    1    3    3    0    0 -0.19445639103E+01  0.98092689513E+01 -0.14228485411E+01  0.10100870477E+02  0.51100000000E-03 0.  1.
<mgrwt>
<rscale>  0 0.20000321E+02</rscale>
<asrwt>0</asrwt>
<pdfrwt beam="1">  1        4 0.13365862E-02 0.20000321E+02</pdfrwt>
<pdfrwt beam="2">  1       -4 0.17708846E-02 0.20000321E+02</pdfrwt>
<totfact> 0.13001802E+06</totfact>
</mgrwt>
</event>
<event>
 5    1  0.1154861E-006  0.2000706E+02  0.7818608E-02  0.1745188E+00
          4   -1    0    0  501    0  0.00000000000E+00  0.00000000000E+00  0.26057925828E+02  0.26096587870E+02  0.14200000000E+01 0.  1.
         -4   -1    0    0    0  501 -0.00000000000E+00 -0.00000000000E+00 -0.36660043710E+01  0.39314104401E+01  0.14200000000E+01 0. -1.
       1023    2    1    2    0    0  0.00000000000E+00  0.00000000000E+00  0.22391921457E+02  0.30027998310E+02  0.20007062152E+02 0.  0.
        -11    1    3    3    0    0 -0.70123577372E+01  0.71328637814E+01  0.10985159429E+02  0.14856804323E+02  0.51100000000E-03 0. -1.
         11    1    3    3    0    0  0.70123577372E+01 -0.71328637814E+01  0.11406762028E+02  0.15171193987E+02  0.51100000000E-03 0.  1.
<mgrwt>
<rscale>  0 0.20007062E+02</rscale>
<asrwt>0</asrwt>
<pdfrwt beam="1">  1        4 0.40323013E-02 0.20007062E+02</pdfrwt>
<pdfrwt beam="2">  1       -4 0.58739056E-03 0.20007062E+02</pdfrwt>
<totfact> 0.12445347E+06</totfact>
</mgrwt>
</event>
<event>
 5    1  0.1154861E-006  0.2000037E+02  0.7818608E-02  0.1745321E+00
          4   -1    0    0  501    0  0.00000000000E+00  0.00000000000E+00  0.25609211284E+02  0.25648549717E+02  0.14200000000E+01 0. -1.
         -4   -1    0    0    0  501 -0.00000000000E+00 -0.00000000000E+00 -0.37320452400E+01  0.39930641960E+01  0.14200000000E+01 0.  1.
       1023    2    1    2    0    0  0.00000000000E+00  0.00000000000E+00  0.21877166044E+02  0.29641613913E+02  0.20000372028E+02 0.  0.
        -11    1    3    3    0    0  0.82557655532E+00  0.99660416297E+01  0.10919975302E+02  0.14807073420E+02  0.51100000000E-03 0. -1.
         11    1    3    3    0    0 -0.82557655532E+00 -0.99660416297E+01  0.10957190742E+02  0.14834540493E+02  0.51100000000E-03 0.  1.
<mgrwt>
<rscale>  0 0.20000372E+02</rscale>
<asrwt>0</asrwt>
<pdfrwt beam="1">  1        4 0.39629831E-02 0.20000372E+02</pdfrwt>
<pdfrwt beam="2">  1       -4 0.59726521E-03 0.20000372E+02</pdfrwt>
<totfact> 0.12474030E+06</totfact>
</mgrwt>
</event>
<event>
 5    1  0.1167754E-006  0.2000123E+02  0.7818608E-02  0.1745304E+00
         -4   -1    0    0    0  501 -0.00000000000E+00  0.00000000000E+00  0.20346919033E+01  0.24812035671E+01  0.14200000000E+01 0. -1.
          4   -1    0    0  501    0  0.00000000000E+00 -0.00000000000E+00 -0.43834320426E+02  0.43857314637E+02  0.14200000000E+01 0.  1.
       1023    2    1    2    0    0  0.00000000000E+00  0.00000000000E+00 -0.41799628522E+02  0.46338518204E+02  0.20001233081E+02 0.  0.
        -11    1    3    3    0    0  0.24169949343E+01 -0.97039891204E+01 -0.21028005160E+02  0.23284893614E+02  0.51100000000E-03 0. -1.
         11    1    3    3    0    0 -0.24169949343E+01  0.97039891204E+01 -0.20771623363E+02  0.23053624590E+02  0.51100000000E-03 0.  1.
<mgrwt>
<rscale>  0 0.20001233E+02</rscale>
<asrwt>0</asrwt>
<pdfrwt beam="2">  1        4 0.67798568E-02 0.20001233E+02</pdfrwt>
<pdfrwt beam="1">  1       -4 0.34914539E-03 0.20001233E+02</pdfrwt>
<totfact> 0.11675571E+06</totfact>
</mgrwt>
</event>
<event>
 5    1  0.1154861E-006  0.2000947E+02  0.7818608E-02  0.1745140E+00
         -4   -1    0    0    0  501 -0.00000000000E+00  0.00000000000E+00  0.46324495511E+01  0.48452026628E+01  0.14200000000E+01 0.  1.
          4   -1    0    0  501    0  0.00000000000E+00 -0.00000000000E+00 -0.20884853968E+02  0.20933072523E+02  0.14200000000E+01 0. -1.
       1023    2    1    2    0    0  0.00000000000E+00  0.00000000000E+00 -0.16252404416E+02  0.25778275186E+02  0.20009468315E+02 0.  0.
        -11    1    3    3    0    0  0.81485524824E+01 -0.57968878500E+01 -0.85167282978E+01  0.13135352202E+02  0.51100000000E-03 0.  1.
         11    1    3    3    0    0 -0.81485524824E+01  0.57968878500E+01 -0.77356761186E+01  0.12642922984E+02  0.51100000000E-03 0. -1.
<mgrwt>
<rscale>  0 0.20009468E+02</rscale>
<asrwt>0</asrwt>
<pdfrwt beam="2">  1        4 0.32331291E-02 0.20009468E+02</pdfrwt>
<pdfrwt beam="1">  1       -4 0.73275930E-03 0.20009468E+02</pdfrwt>
<totfact> 0.12670178E+06</totfact>
</mgrwt>
</event>
<event>
 5    1  0.1154861E-006  0.2000019E+02  0.7818608E-02  0.1745324E+00
          4   -1    0    0  501    0  0.00000000000E+00  0.00000000000E+00  0.12031314288E+02  0.12114822471E+02  0.14200000000E+01 0. -1.
         -4   -1    0    0    0  501 -0.00000000000E+00 -0.00000000000E+00 -0.81378550677E+01  0.82608162492E+01  0.14200000000E+01 0.  1.
       1023    2    1    2    0    0  0.00000000000E+00  0.00000000000E+00  0.38934592203E+01  0.20375638720E+02  0.20000190713E+02 0.  0.
        -11    1    3    3    0    0  0.78022284878E+01 -0.62551419973E+01  0.19654065692E+01  0.10191388229E+02  0.51100000000E-03 0. -1.
         11    1    3    3    0    0 -0.78022284878E+01  0.62551419973E+01  0.19280526511E+01  0.10184250491E+02  0.51100000000E-03 0.  1.
<mgrwt>
<rscale>  0 0.20000191E+02</rscale>
<asrwt>0</asrwt>
<pdfrwt beam="1">  1        4 0.18668537E-02 0.20000191E+02</pdfrwt>
<pdfrwt beam="2">  1       -4 0.12678600E-02 0.20000191E+02</pdfrwt>
<totfact> 0.12991442E+06</totfact>
</mgrwt>
</event>
<event>
 5    1  0.1154861E-006  0.2000794E+02  0.7818608E-02  0.1745170E+00
          4   -1    0    0  501    0  0.00000000000E+00  0.00000000000E+00  0.49095064152E+02  0.49115595529E+02  0.14200000000E+01 0. -1.
         -4   -1    0    0    0  501 -0.00000000000E+00 -0.00000000000E+00 -0.17676043981E+01  0.22673388163E+01  0.14200000000E+01 0.  1.
       1023    2    1    2    0    0  0.00000000000E+00  0.00000000000E+00  0.47327459754E+02  0.51382934345E+02  0.20007935803E+02 0.  0.
        -11    1    3    3    0    0 -0.24497326741E+01  0.96987379654E+01  0.23374713176E+02  0.25425261545E+02  0.51100000000E-03 0.  1.
         11    1    3    3    0    0  0.24497326741E+01 -0.96987379654E+01  0.23952746579E+02  0.25957672800E+02  0.51100000000E-03 0. -1.
<mgrwt>
<rscale>  0 0.20007936E+02</rscale>
<asrwt>0</asrwt>
<pdfrwt beam="1">  1        4 0.75931064E-02 0.20007936E+02</pdfrwt>
<pdfrwt beam="2">  1       -4 0.31195962E-03 0.20007936E+02</pdfrwt>
<totfact> 0.11453279E+06</totfact>
</mgrwt>
</event>
<event>
 5    1  0.1154861E-006  0.2000376E+02  0.7818608E-02  0.1745253E+00
          4   -1    0    0  501    0  0.00000000000E+00  0.00000000000E+00  0.40965186993E+02  0.40989790746E+02  0.14200000000E+01 0. -1.
         -4   -1    0    0    0  501 -0.00000000000E+00 -0.00000000000E+00 -0.22080177170E+01  0.26252127987E+01  0.14200000000E+01 0.  1.
       1023    2    1    2    0    0  0.00000000000E+00  0.00000000000E+00  0.38757169276E+02  0.43615003545E+02  0.20003758744E+02 0.  0.
        -11    1    3    3    0    0 -0.32119870764E+01 -0.94720150283E+01  0.19467446199E+02  0.21886465942E+02  0.51100000000E-03 0. -1.
         11    1    3    3    0    0  0.32119870764E+01  0.94720150283E+01  0.19289723078E+02  0.21728537603E+02  0.51100000000E-03 0.  1.
<mgrwt>
<rscale>  0 0.20003759E+02</rscale>
<asrwt>0</asrwt>
<pdfrwt beam="1">  1        4 0.63363214E-02 0.20003759E+02</pdfrwt>
<pdfrwt beam="2">  1       -4 0.37367953E-03 0.20003759E+02</pdfrwt>
<totfact> 0.11793009E+06</totfact>
</mgrwt>
</event>
<event>
 5    1  0.1154861E-006  0.2000035E+02  0.7818608E-02  0.1745321E+00
          4   -1    0    0  501    0  0.00000000000E+00  0.00000000000E+00  0.10348044941E+02  0.10445019583E+02  0.14200000000E+01 0. -1.
         -4   -1    0    0    0  501 -0.00000000000E+00 -0.00000000000E+00 -0.94687670449E+01  0.95746513958E+01  0.14200000000E+01 0.  1.
       1023    2    1    2    0    0  0.00000000000E+00  0.00000000000E+00  0.87927789593E+00  0.20019670979E+02  0.20000352409E+02 0.  0.
        -11    1    3    3    0    0 -0.21302496159E+01  0.97705889802E+01  0.47360425820E+00  0.10011327270E+02  0.51100000000E-03 0.  1.
         11    1    3    3    0    0  0.21302496159E+01 -0.97705889802E+01  0.40567363773E+00  0.10008343710E+02  0.51100000000E-03 0. -1.
<mgrwt>
<rscale>  0 0.20000352E+02</rscale>
<asrwt>0</asrwt>
<pdfrwt beam="1">  1        4 0.16076115E-02 0.20000352E+02</pdfrwt>
<pdfrwt beam="2">  1       -4 0.14723379E-02 0.20000352E+02</pdfrwt>
<totfact> 0.13012409E+06</totfact>
</mgrwt>
</event>
<event>
 5    1  0.1154861E-006  0.2000022E+02  0.7818608E-02  0.1745324E+00
         -4   -1    0    0    0  501 -0.00000000000E+00  0.00000000000E+00  0.66772181675E+01  0.68265395667E+01  0.14200000000E+01 0.  1.
          4   -1    0    0  501    0  0.00000000000E+00 -0.00000000000E+00 -0.14626940442E+02  0.14695706403E+02  0.14200000000E+01 0. -1.
       1023    2    1    2    0    0  0.00000000000E+00  0.00000000000E+00 -0.79497222743E+01  0.21522245970E+02  0.20000224682E+02 0.  0.
        -11    1    3    3    0    0  0.93623009908E+01 -0.35141918675E+01 -0.39697849048E+01  0.10759247965E+02  0.51100000000E-03 0. -1.
         11    1    3    3    0    0 -0.93623009908E+01  0.35141918675E+01 -0.39799373695E+01  0.10762998005E+02  0.51100000000E-03 0.  1.
<mgrwt>
<rscale>  0 0.20000225E+02</rscale>
<asrwt>0</asrwt>
<pdfrwt beam="2">  1        4 0.22670745E-02 0.20000225E+02</pdfrwt>
<pdfrwt beam="1">  1       -4 0.10440403E-02 0.20000225E+02</pdfrwt>
<totfact> 0.12923767E+06</totfact>
</mgrwt>
</event>
<event>
 5    1  0.1154861E-006  0.2000057E+02  0.7818608E-02  0.1745317E+00
         -4   -1    0    0    0  501 -0.00000000000E+00  0.00000000000E+00  0.44958479260E+01  0.47147691962E+01  0.14200000000E+01 0.  1.
          4   -1    0    0  501    0  0.00000000000E+00 -0.00000000000E+00 -0.21472374972E+02  0.21519277100E+02  0.14200000000E+01 0. -1.
       1023    2    1    2    0    0  0.00000000000E+00  0.00000000000E+00 -0.16976527046E+02  0.26234046296E+02  0.20000567856E+02 0.  0.
        -11    1    3    3    0    0 -0.96857630663E+01  0.24882044982E+01 -0.85179018522E+01  0.13136202649E+02  0.51100000000E-03 0. -1.
         11    1    3    3    0    0  0.96857630663E+01 -0.24882044982E+01 -0.84586251933E+01  0.13097843648E+02  0.51100000000E-03 0.  1.
<mgrwt>
<rscale>  0 0.20000568E+02</rscale>
<asrwt>0</asrwt>
<pdfrwt beam="2">  1        4 0.33238902E-02 0.20000568E+02</pdfrwt>
<pdfrwt beam="1">  1       -4 0.71211688E-03 0.20000568E+02</pdfrwt>
<totfact> 0.12656574E+06</totfact>
</mgrwt>
</event>
<event>
 5    1  0.1154861E-006  0.2000021E+02  0.7818608E-02  0.1745324E+00
         -4   -1    0    0    0  501 -0.00000000000E+00  0.00000000000E+00  0.38250812583E+02  0.38277161118E+02  0.14200000000E+01 0. -1.
          4   -1    0    0  501    0  0.00000000000E+00 -0.00000000000E+00 -0.23922096666E+01  0.27819178797E+01  0.14200000000E+01 0.  1.
       1023    2    1    2    0    0  0.00000000000E+00  0.00000000000E+00  0.35858602916E+02  0.41059078998E+02  0.20000214125E+02 0.  0.
        -11    1    3    3    0    0  0.16000642314E+01  0.98712342286E+01  0.17982450404E+02  0.20575956685E+02  0.51100000000E-03 0. -1.
         11    1    3    3    0    0 -0.16000642314E+01 -0.98712342286E+01  0.17876152513E+02  0.20483122312E+02  0.51100000000E-03 0.  1.
<mgrwt>
<rscale>  0 0.20000214E+02</rscale>
<asrwt>0</asrwt>
<pdfrwt beam="2">  1        4 0.40003661E-03 0.20000214E+02</pdfrwt>
<pdfrwt beam="1">  1       -4 0.59167450E-02 0.20000214E+02</pdfrwt>
<totfact> 0.11913341E+06</totfact>
</mgrwt>
</event>
<event>
 5    1  0.1172737E-006  0.2000193E+02  0.7818608E-02  0.1745290E+00
         -4   -1    0    0    0  501 -0.00000000000E+00  0.00000000000E+00  0.61135049215E+01  0.62762522595E+01  0.14200000000E+01 0.  1.
          4   -1    0    0  501    0  0.00000000000E+00 -0.00000000000E+00 -0.15950787051E+02  0.16013869225E+02  0.14200000000E+01 0. -1.
       1023    2    1    2    0    0  0.00000000000E+00  0.00000000000E+00 -0.98372821294E+01  0.22290121484E+02  0.20001934809E+02 0.  0.
        -11    1    3    3    0    0  0.91240805193E+01  0.40932823238E+01 -0.47797061452E+01  0.11083744701E+02  0.51100000000E-03 0. -1.
         11    1    3    3    0    0 -0.91240805193E+01 -0.40932823238E+01 -0.50575759842E+01  0.11206376783E+02  0.51100000000E-03 0.  1.
<mgrwt>
<rscale>  0 0.20001935E+02</rscale>
<asrwt>0</asrwt>
<pdfrwt beam="2">  1        4 0.24713387E-02 0.20001935E+02</pdfrwt>
<pdfrwt beam="1">  1       -4 0.95791072E-03 0.20001935E+02</pdfrwt>
<totfact> 0.12876879E+06</totfact>
</mgrwt>
</event>
<event>
 5    1  0.1154861E-006  0.2000116E+02  0.7818608E-02  0.1745305E+00
          4   -1    0    0  501    0  0.00000000000E+00  0.00000000000E+00  0.25363673051E+01  0.29068125338E+01  0.14200000000E+01 0. -1.
         -4   -1    0    0    0  501 -0.00000000000E+00 -0.00000000000E+00 -0.36362229441E+02  0.36389945451E+02  0.14200000000E+01 0.  1.
       1023    2    1    2    0    0  0.00000000000E+00  0.00000000000E+00 -0.33825862135E+02  0.39296757984E+02  0.20001155938E+02 0.  0.
        -11    1    3    3    0    0 -0.85881482107E+01  0.51239731084E+01 -0.16887363026E+02  0.19626370534E+02  0.51100000000E-03 0. -1.
         11    1    3    3    0    0  0.85881482107E+01 -0.51239731084E+01 -0.16938499109E+02  0.19670387450E+02  0.51100000000E-03 0.  1.
<mgrwt>
<rscale>  0 0.20001156E+02</rscale>
<asrwt>0</asrwt>
<pdfrwt beam="1">  1        4 0.42083817E-03 0.20001156E+02</pdfrwt>
<pdfrwt beam="2">  1       -4 0.56248166E-02 0.20001156E+02</pdfrwt>
<totfact> 0.11994064E+06</totfact>
</mgrwt>
</event>
<event>
 5    1  0.1154861E-006  0.2000025E+02  0.7818608E-02  0.1745323E+00
         -4   -1    0    0    0  501 -0.00000000000E+00  0.00000000000E+00  0.46648911498E+02  0.46670519002E+02  0.14200000000E+01 0.  1.
          4   -1    0    0  501    0  0.00000000000E+00 -0.00000000000E+00 -0.18839591812E+01  0.23591740496E+01  0.14200000000E+01 0. -1.
       1023    2    1    2    0    0  0.00000000000E+00  0.00000000000E+00  0.44764952317E+02  0.49029693052E+02  0.20000246120E+02 0.  0.
        -11    1    3    3    0    0  0.22013679799E+01  0.97548116960E+01  0.22405569654E+02  0.24535931284E+02  0.51100000000E-03 0.  1.
         11    1    3    3    0    0 -0.22013679799E+01 -0.97548116960E+01  0.22359382663E+02  0.24493761768E+02  0.51100000000E-03 0. -1.
<mgrwt>
<rscale>  0 0.20000246E+02</rscale>
<asrwt>0</asrwt>
<pdfrwt beam="2">  1        4 0.32805700E-03 0.20000246E+02</pdfrwt>
<pdfrwt beam="1">  1       -4 0.72149723E-02 0.20000246E+02</pdfrwt>
<totfact> 0.11560931E+06</totfact>
</mgrwt>
</event>
<event>
 5    1  0.1154861E-006  0.2000109E+02  0.7818608E-02  0.1745306E+00
          4   -1    0    0  501    0  0.00000000000E+00  0.00000000000E+00  0.17000249053E+01  0.22150586175E+01  0.14200000000E+01 0.  1.
         -4   -1    0    0    0  501 -0.00000000000E+00 -0.00000000000E+00 -0.50563736806E+02  0.50583672067E+02  0.14200000000E+01 0. -1.
       1023    2    1    2    0    0  0.00000000000E+00  0.00000000000E+00 -0.48863711900E+02  0.52798730684E+02  0.20001090500E+02 0.  0.
        -11    1    3    3    0    0  0.28617066057E+00 -0.99961091029E+01 -0.24649765822E+02  0.26601034683E+02  0.51100000000E-03 0. -1.
         11    1    3    3    0    0 -0.28617066057E+00  0.99961091029E+01 -0.24213946078E+02  0.26197696001E+02  0.51100000000E-03 0.  1.
<mgrwt>
<rscale>  0 0.20001090E+02</rscale>
<asrwt>0</asrwt>
<pdfrwt beam="1">  1        4 0.30269379E-03 0.20001090E+02</pdfrwt>
<pdfrwt beam="2">  1       -4 0.78201869E-02 0.20001090E+02</pdfrwt>
<totfact> 0.11402843E+06</totfact>
</mgrwt>
</event>
<event>
 5    1  0.1186780E-006  0.2000105E+02  0.7818608E-02  0.1745307E+00
          4   -1    0    0  501    0  0.00000000000E+00  0.00000000000E+00  0.35997377886E+01  0.38696914795E+01  0.14200000000E+01 0.  1.
         -4   -1    0    0    0  501 -0.00000000000E+00 -0.00000000000E+00 -0.26488950088E+02  0.26526983936E+02  0.14200000000E+01 0. -1.
       1023    2    1    2    0    0  0.00000000000E+00  0.00000000000E+00 -0.22889212299E+02  0.30396675415E+02  0.20001045889E+02 0.  0.
        -11    1    3    3    0    0  0.17783713652E+01  0.98411219434E+01 -0.11424612070E+02  0.15183281827E+02  0.51100000000E-03 0. -1.
         11    1    3    3    0    0 -0.17783713652E+01 -0.98411219434E+01 -0.11464600228E+02  0.15213393588E+02  0.51100000000E-03 0.  1.
<mgrwt>
<rscale>  0 0.20001046E+02</rscale>
<asrwt>0</asrwt>
<pdfrwt beam="1">  1        4 0.57749718E-03 0.20001046E+02</pdfrwt>
<pdfrwt beam="2">  1       -4 0.40989143E-02 0.20001046E+02</pdfrwt>
<totfact> 0.12433752E+06</totfact>
</mgrwt>
</event>
<event>
 5    1  0.1154861E-006  0.2000099E+02  0.7818608E-02  0.1745308E+00
         -4   -1    0    0    0  501 -0.00000000000E+00  0.00000000000E+00  0.48030307204E+02  0.48051293532E+02  0.14200000000E+01 0.  1.
          4   -1    0    0  501    0  0.00000000000E+00 -0.00000000000E+00 -0.18161078392E+01  0.23053519652E+01  0.14200000000E+01 0. -1.
       1023    2    1    2    0    0  0.00000000000E+00  0.00000000000E+00  0.46214199365E+02  0.50356645498E+02  0.20000988046E+02 0.  0.
        -11    1    3    3    0    0 -0.97508997818E+01  0.22197847458E+01  0.23230173323E+02  0.25291272086E+02  0.51100000000E-03 0.  1.
         11    1    3    3    0    0  0.97508997818E+01 -0.22197847458E+01  0.22984026042E+02  0.25065373411E+02  0.51100000000E-03 0. -1.
<mgrwt>
<rscale>  0 0.20000988E+02</rscale>
<asrwt>0</asrwt>
<pdfrwt beam="2">  1        4 0.31864968E-03 0.20000988E+02</pdfrwt>
<pdfrwt beam="1">  1       -4 0.74285270E-02 0.20000988E+02</pdfrwt>
<totfact> 0.11504097E+06</totfact>
</mgrwt>
</event>
<event>
 5    1  0.1154861E-006  0.2000299E+02  0.7818608E-02  0.1745269E+00
          4   -1    0    0  501    0  0.00000000000E+00  0.00000000000E+00  0.94274554373E+01  0.95337986146E+01  0.14200000000E+01 0. -1.
         -4   -1    0    0    0  501 -0.00000000000E+00 -0.00000000000E+00 -0.10396098553E+02  0.10492629086E+02  0.14200000000E+01 0.  1.
       1023    2    1    2    0    0  0.00000000000E+00  0.00000000000E+00 -0.96864311581E+00  0.20026427700E+02  0.20002988200E+02 0.  0.
        -11    1    3    3    0    0 -0.46412656852E+01 -0.88581991950E+01 -0.33977843843E+00  0.10006222553E+02  0.51100000000E-03 0.  1.
         11    1    3    3    0    0  0.46412656852E+01  0.88581991950E+01 -0.62886467738E+00  0.10020205147E+02  0.51100000000E-03 0. -1.
<mgrwt>
<rscale>  0 0.20002988E+02</rscale>
<asrwt>0</asrwt>
<pdfrwt beam="1">  1        4 0.14659834E-02 0.20002988E+02</pdfrwt>
<pdfrwt beam="2">  1       -4 0.16150054E-02 0.20002988E+02</pdfrwt>
<totfact> 0.13008507E+06</totfact>
</mgrwt>
</event>
<event>
 5    1  0.1154861E-006  0.2000033E+02  0.7818608E-02  0.1745321E+00
          4   -1    0    0  501    0  0.00000000000E+00  0.00000000000E+00  0.52553981560E+01  0.54438598235E+01  0.14200000000E+01 0. -1.
         -4   -1    0    0    0  501 -0.00000000000E+00 -0.00000000000E+00 -0.18477325769E+02  0.18531809615E+02  0.14200000000E+01 0.  1.
       1023    2    1    2    0    0  0.00000000000E+00  0.00000000000E+00 -0.13221927613E+02  0.23975669438E+02  0.20000333877E+02 0.  0.
        -11    1    3    3    0    0 -0.64352867293E+01 -0.76543857852E+01 -0.66449016932E+01  0.12006550538E+02  0.51100000000E-03 0.  1.
         11    1    3    3    0    0  0.64352867293E+01  0.76543857852E+01 -0.65770259202E+01  0.11969118900E+02  0.51100000000E-03 0. -1.
<mgrwt>
<rscale>  0 0.20000334E+02</rscale>
<asrwt>0</asrwt>
<pdfrwt beam="1">  1        4 0.82721092E-03 0.20000334E+02</pdfrwt>
<pdfrwt beam="2">  1       -4 0.28613536E-02 0.20000334E+02</pdfrwt>
<totfact> 0.12782698E+06</totfact>
</mgrwt>
</event>
<event>
 5    1  0.1154861E-006  0.2000230E+02  0.7818608E-02  0.1745282E+00
          4   -1    0    0  501    0  0.00000000000E+00  0.00000000000E+00  0.80824809205E+00  0.16339109456E+01  0.14200000000E+01 0. -1.
         -4   -1    0    0    0  501 -0.00000000000E+00 -0.00000000000E+00 -0.81079635736E+02  0.81092069471E+02  0.14200000000E+01 0.  1.
       1023    2    1    2    0    0  0.00000000000E+00  0.00000000000E+00 -0.80271387644E+02  0.82725980417E+02  0.20002303907E+02 0.  0.
        -11    1    3    3    0    0  0.99989957726E+01  0.18745312620E+00 -0.40505266170E+02  0.41721596841E+02  0.51100000000E-03 0.  1.
         11    1    3    3    0    0 -0.99989957726E+01 -0.18745312620E+00 -0.39766121474E+02  0.41004383576E+02  0.51100000000E-03 0. -1.
<mgrwt>
<rscale>  0 0.20002304E+02</rscale>
<asrwt>0</asrwt>
<pdfrwt beam="1">  1        4 0.18881489E-03 0.20002304E+02</pdfrwt>
<pdfrwt beam="2">  1       -4 0.12538255E-01 0.20002304E+02</pdfrwt>
<totfact> 0.10320573E+06</totfact>
</mgrwt>
</event>
<event>
 5    1  0.1154861E-006  0.2000600E+02  0.7818608E-02  0.1745209E+00
         -4   -1    0    0    0  501 -0.00000000000E+00  0.00000000000E+00  0.10008650731E+02  0.10108881711E+02  0.14200000000E+01 0. -1.
          4   -1    0    0  501    0  0.00000000000E+00 -0.00000000000E+00 -0.97958600587E+01  0.98982460208E+01  0.14200000000E+01 0.  1.
       1023    2    1    2    0    0  0.00000000000E+00  0.00000000000E+00  0.21279067237E+00  0.20007127732E+02  0.20005996107E+02 0.  0.
        -11    1    3    3    0    0  0.90565858031E+01  0.42458069074E+01 -0.13341810969E-03  0.10002430854E+02  0.51100000000E-03 0.  1.
         11    1    3    3    0    0 -0.90565858031E+01 -0.42458069074E+01  0.21292409048E+00  0.10004696879E+02  0.51100000000E-03 0. -1.
<mgrwt>
<rscale>  0 0.20005996E+02</rscale>
<asrwt>0</asrwt>
<pdfrwt beam="2">  1        4 0.15226413E-02 0.20005996E+02</pdfrwt>
<pdfrwt beam="1">  1       -4 0.15553783E-02 0.20005996E+02</pdfrwt>
<totfact> 0.13005658E+06</totfact>
</mgrwt>
</event>
<event>
 5    1  0.1154861E-006  0.2000179E+02  0.7818608E-02  0.1745292E+00
          4   -1    0    0  501    0  0.00000000000E+00  0.00000000000E+00  0.70219681788E+00  0.15841339498E+01  0.14200000000E+01 0.  1.
         -4   -1    0    0    0  501 -0.00000000000E+00 -0.00000000000E+00 -0.86602081170E+02  0.86613722140E+02  0.14200000000E+01 0. -1.
       1023    2    1    2    0    0  0.00000000000E+00  0.00000000000E+00 -0.85899884352E+02  0.88197856090E+02  0.20001792099E+02 0.  0.
        -11    1    3    3    0    0  0.71515467457E+01 -0.69909143717E+01 -0.42859906026E+02  0.44011237763E+02  0.51100000000E-03 0.  1.
         11    1    3    3    0    0 -0.71515467457E+01  0.69909143717E+01 -0.43039978326E+02  0.44186618327E+02  0.51100000000E-03 0. -1.
<mgrwt>
<rscale>  0 0.20001792E+02</rscale>
<asrwt>0</asrwt>
<pdfrwt beam="1">  1        4 0.17676712E-03 0.20001792E+02</pdfrwt>
<pdfrwt beam="2">  1       -4 0.13392129E-01 0.20001792E+02</pdfrwt>
<totfact> 0.10149127E+06</totfact>
</mgrwt>
</event>
<event>
 5    1  0.1154861E-006  0.2000113E+02  0.7818608E-02  0.1745306E+00
          4   -1    0    0  501    0  0.00000000000E+00  0.00000000000E+00  0.95677016905E+02  0.95687553861E+02  0.14200000000E+01 0.  1.
         -4   -1    0    0    0  501 -0.00000000000E+00 -0.00000000000E+00 -0.54747621642E+00  0.15218837694E+01  0.14200000000E+01 0. -1.
       1023    2    1    2    0    0  0.00000000000E+00  0.00000000000E+00  0.95129540689E+02  0.97209437630E+02  0.20001131286E+02 0.  0.
        -11    1    3    3    0    0  0.61074721857E-01 -0.10000371974E+02  0.47622928735E+02  0.48661632846E+02  0.51100000000E-03 0.  1.
         11    1    3    3    0    0 -0.61074721857E-01  0.10000371974E+02  0.47506611954E+02  0.48547804784E+02  0.51100000000E-03 0. -1.
<mgrwt>
<rscale>  0 0.20001131E+02</rscale>
<asrwt>0</asrwt>
<pdfrwt beam="1">  1        4 0.14795309E-01 0.20001131E+02</pdfrwt>
<pdfrwt beam="2">  1       -4 0.15999204E-03 0.20001131E+02</pdfrwt>
<totfact> 0.98803267E+05</totfact>
</mgrwt>
</event>
<event>
 5    1  0.1170389E-006  0.2000156E+02  0.7818608E-02  0.1745297E+00
         -4   -1    0    0    0  501 -0.00000000000E+00  0.00000000000E+00  0.61271999854E+01  0.62895929647E+01  0.14200000000E+01 0. -1.
          4   -1    0    0  501    0  0.00000000000E+00 -0.00000000000E+00 -0.15915313218E+02  0.15978535440E+02  0.14200000000E+01 0.  1.
       1023    2    1    2    0    0  0.00000000000E+00  0.00000000000E+00 -0.97881132323E+01  0.22268128405E+02  0.20001559490E+02 0.  0.
        -11    1    3    3    0    0  0.63075714955E+01 -0.77605845986E+01 -0.49595796168E+01  0.11162865301E+02  0.51100000000E-03 0. -1.
         11    1    3    3    0    0 -0.63075714955E+01  0.77605845986E+01 -0.48285336155E+01  0.11105263104E+02  0.51100000000E-03 0.  1.
<mgrwt>
<rscale>  0 0.20001559E+02</rscale>
<asrwt>0</asrwt>
<pdfrwt beam="2">  1        4 0.24658647E-02 0.20001559E+02</pdfrwt>
<pdfrwt beam="1">  1       -4 0.96000117E-03 0.20001559E+02</pdfrwt>
<totfact> 0.12878643E+06</totfact>
</mgrwt>
</event>
<event>
 5    1  0.1154861E-006  0.2000024E+02  0.7818608E-02  0.1745323E+00
         -4   -1    0    0    0  501 -0.00000000000E+00  0.00000000000E+00  0.42983589514E+00  0.14836303100E+01  0.14200000000E+01 0.  1.
          4   -1    0    0  501    0  0.00000000000E+00 -0.00000000000E+00 -0.10346354091E+03  0.10347328495E+03  0.14200000000E+01 0. -1.
       1023    2    1    2    0    0  0.00000000000E+00  0.00000000000E+00 -0.10303370502E+03  0.10495691526E+03  0.20000242276E+02 0.  0.
        -11    1    3    3    0    0  0.21084711759E+01  0.97751937213E+01 -0.51771763117E+02  0.52728697305E+02  0.51100000000E-03 0. -1.
         11    1    3    3    0    0 -0.21084711759E+01 -0.97751937213E+01 -0.51261941899E+02  0.52228217952E+02  0.51100000000E-03 0.  1.
<mgrwt>
<rscale>  0 0.20000242E+02</rscale>
<asrwt>0</asrwt>
<pdfrwt beam="2">  1        4 0.15999270E-01 0.20000242E+02</pdfrwt>
<pdfrwt beam="1">  1       -4 0.14793933E-03 0.20000242E+02</pdfrwt>
<totfact> 0.96620975E+05</totfact>
</mgrwt>
</event>
<event>
 4    1  0.1154861E-006  0.2001338E+02  0.7818608E-02  0.1745062E+00
         -4   -1    0    0    0  501 -0.00000000000E+00  0.00000000000E+00  0.25772326107E+00  0.14431982814E+01  0.14200000000E+01 0.  1.
          4   -1    0    0  501    0  0.00000000000E+00 -0.00000000000E+00 -0.11654783730E+03  0.11655648750E+03  0.14200000000E+01 0. -1.
        -11    1    1    2    0    0 -0.99959819493E+01 -0.43279267454E+00 -0.59111012837E+02  0.59951804005E+02  0.51100000000E-03 0. -1.
         11    1    1    2    0    0  0.99959819493E+01  0.43279267454E+00 -0.57179101202E+02  0.58047881780E+02  0.51100000000E-03 0.  1.
<mgrwt>
<rscale>  0 0.20013376E+02</rscale>
<asrwt>0</asrwt>
<pdfrwt beam="2">  1        4 0.18022280E-01 0.20013376E+02</pdfrwt>
<pdfrwt beam="1">  1       -4 0.13150561E-03 0.20013376E+02</pdfrwt>
<totfact> 0.93040963E+05</totfact>
</mgrwt>
</event>
<event>
 5    1  0.1194238E-006  0.2000186E+02  0.7818608E-02  0.1745291E+00
         -4   -1    0    0    0  501 -0.00000000000E+00  0.00000000000E+00  0.14108978461E+02  0.14180256458E+02  0.14200000000E+01 0. -1.
          4   -1    0    0  501    0  0.00000000000E+00 -0.00000000000E+00 -0.69276681700E+01  0.70717032088E+01  0.14200000000E+01 0.  1.
       1023    2    1    2    0    0  0.00000000000E+00  0.00000000000E+00  0.71813102908E+01  0.21251959667E+02  0.20001864218E+02 0.  0.
        -11    1    3    3    0    0 -0.37007898699E+01  0.92903721114E+01  0.34753206337E+01  0.10587006820E+02  0.51100000000E-03 0. -1.
         11    1    3    3    0    0  0.37007898699E+01 -0.92903721114E+01  0.37059896571E+01  0.10664952847E+02  0.51100000000E-03 0.  1.
<mgrwt>
<rscale>  0 0.20001864E+02</rscale>
<asrwt>0</asrwt>
<pdfrwt beam="2">  1        4 0.10823576E-02 0.20001864E+02</pdfrwt>
<pdfrwt beam="1">  1       -4 0.21871746E-02 0.20001864E+02</pdfrwt>
<totfact> 0.12937450E+06</totfact>
</mgrwt>
</event>
<event>
 4    1  0.1154861E-006  0.2005575E+02  0.7818608E-02  0.1744222E+00
          4   -1    0    0  501    0  0.00000000000E+00  0.00000000000E+00  0.95927370140E+02  0.95937879599E+02  0.14200000000E+01 0.  1.
         -4   -1    0    0    0  501 -0.00000000000E+00 -0.00000000000E+00 -0.55188674901E+00  0.15234759544E+01  0.14200000000E+01 0. -1.
        -11    1    1    2    0    0 -0.98172955987E+01 -0.19916742839E+01  0.49926230961E+02  0.50921258797E+02  0.51100000000E-03 0. -1.
         11    1    1    2    0    0  0.98172955987E+01  0.19916742839E+01  0.45449252431E+02  0.46540096756E+02  0.51100000000E-03 0.  1.
<mgrwt>
<rscale>  0 0.20055747E+02</rscale>
<asrwt>0</asrwt>
<pdfrwt beam="1">  1        4 0.14833608E-01 0.20055747E+02</pdfrwt>
<pdfrwt beam="2">  1       -4 0.16045165E-03 0.20055747E+02</pdfrwt>
<totfact> 0.98194182E+05</totfact>
</mgrwt>
</event>
<event>
 5    1  0.1154861E-006  0.2000073E+02  0.7818608E-02  0.1745314E+00
         -4   -1    0    0    0  501 -0.00000000000E+00  0.00000000000E+00  0.32013318695E+00  0.14556391233E+01  0.14200000000E+01 0.  1.
          4   -1    0    0  501    0  0.00000000000E+00 -0.00000000000E+00 -0.11149234328E+03  0.11150138569E+03  0.14200000000E+01 0. -1.
       1023    2    1    2    0    0  0.00000000000E+00  0.00000000000E+00 -0.11117221010E+03  0.11295702481E+03  0.20000728911E+02 0.  0.
        -11    1    3    3    0    0  0.27455194514E+01 -0.96159426486E+01 -0.55898461397E+02  0.56785933266E+02  0.51100000000E-03 0. -1.
         11    1    3    3    0    0 -0.27455194514E+01  0.96159426486E+01 -0.55273748698E+02  0.56171091546E+02  0.51100000000E-03 0.  1.
<mgrwt>
<rscale>  0 0.20000729E+02</rscale>
<asrwt>0</asrwt>
<pdfrwt beam="2">  1        4 0.17240699E-01 0.20000729E+02</pdfrwt>
<pdfrwt beam="1">  1       -4 0.13729353E-03 0.20000729E+02</pdfrwt>
<totfact> 0.94462428E+05</totfact>
</mgrwt>
</event>
<event>
 5    1  0.1161435E-006  0.2000148E+02  0.7818608E-02  0.1745299E+00
          4   -1    0    0  501    0  0.00000000000E+00  0.00000000000E+00  0.18445557537E+02  0.18500134941E+02  0.14200000000E+01 0.  1.
         -4   -1    0    0    0  501 -0.00000000000E+00 -0.00000000000E+00 -0.52653750638E+01  0.54534919604E+01  0.14200000000E+01 0. -1.
       1023    2    1    2    0    0  0.00000000000E+00  0.00000000000E+00  0.13180182473E+02  0.23953626902E+02  0.20001475739E+02 0.  0.
        -11    1    3    3    0    0 -0.99344529662E+01  0.11463175855E+01  0.66928187699E+01  0.12033337986E+02  0.51100000000E-03 0.  1.
         11    1    3    3    0    0  0.99344529662E+01 -0.11463175855E+01  0.64873637030E+01  0.11920288915E+02  0.51100000000E-03 0. -1.
<mgrwt>
<rscale>  0 0.20001476E+02</rscale>
<asrwt>0</asrwt>
<pdfrwt beam="1">  1        4 0.28564469E-02 0.20001476E+02</pdfrwt>
<pdfrwt beam="2">  1       -4 0.82872650E-03 0.20001476E+02</pdfrwt>
<totfact> 0.12782455E+06</totfact>
</mgrwt>
</event>
<event>
 5    1  0.1154861E-006  0.2000893E+02  0.7818608E-02  0.1745151E+00
         -4   -1    0    0    0  501 -0.00000000000E+00  0.00000000000E+00  0.21948316683E+01  0.26141319883E+01  0.14200000000E+01 0. -1.
          4   -1    0    0  501    0  0.00000000000E+00 -0.00000000000E+00 -0.41193559454E+02  0.41218026888E+02  0.14200000000E+01 0.  1.
       1023    2    1    2    0    0  0.00000000000E+00  0.00000000000E+00 -0.38998727786E+02  0.43832158876E+02  0.20008932575E+02 0.  0.
        -11    1    3    3    0    0  0.51346068097E+01 -0.85836933038E+01 -0.19965960857E+02  0.22331224127E+02  0.51100000000E-03 0.  1.
         11    1    3    3    0    0 -0.51346068097E+01  0.85836933038E+01 -0.19032766929E+02  0.21500934748E+02  0.51100000000E-03 0. -1.
<mgrwt>
<rscale>  0 0.20008933E+02</rscale>
<asrwt>0</asrwt>
<pdfrwt beam="2">  1        4 0.63716062E-02 0.20008933E+02</pdfrwt>
<pdfrwt beam="1">  1       -4 0.37180242E-03 0.20008933E+02</pdfrwt>
<totfact> 0.11777125E+06</totfact>
</mgrwt>
</event>
<event>
 5    1  0.1154861E-006  0.2000166E+02  0.7818608E-02  0.1745295E+00
          4   -1    0    0  501    0  0.00000000000E+00  0.00000000000E+00  0.14000234532E+01  0.19941077377E+01  0.14200000000E+01 0. -1.
         -4   -1    0    0    0  501 -0.00000000000E+00 -0.00000000000E+00 -0.58330793638E+02  0.58348075259E+02  0.14200000000E+01 0.  1.
       1023    2    1    2    0    0  0.00000000000E+00  0.00000000000E+00 -0.56930770185E+02  0.60342182997E+02  0.20001661306E+02 0.  0.
        -11    1    3    3    0    0 -0.99890302998E+01  0.48248518995E+00 -0.28633226496E+02  0.30329444079E+02  0.51100000000E-03 0. -1.
         11    1    3    3    0    0  0.99890302998E+01 -0.48248518995E+00 -0.28297543688E+02  0.30012738918E+02  0.51100000000E-03 0.  1.
<mgrwt>
<rscale>  0 0.20001661E+02</rscale>
<asrwt>0</asrwt>
<pdfrwt beam="1">  1        4 0.26241642E-03 0.20001661E+02</pdfrwt>
<pdfrwt beam="2">  1       -4 0.90209949E-02 0.20001661E+02</pdfrwt>
<totfact> 0.11103881E+06</totfact>
</mgrwt>
</event>
<event>
 5    1  0.1154861E-006  0.2000038E+02  0.7818608E-02  0.1745320E+00
          4   -1    0    0  501    0  0.00000000000E+00  0.00000000000E+00  0.86721013954E+00  0.16638670097E+01  0.14200000000E+01 0.  1.
         -4   -1    0    0    0  501 -0.00000000000E+00 -0.00000000000E+00 -0.78215633257E+02  0.78228522201E+02  0.14200000000E+01 0. -1.
       1023    2    1    2    0    0  0.00000000000E+00  0.00000000000E+00 -0.77348423117E+02  0.79892389211E+02  0.20000382373E+02 0.  0.
        -11    1    3    3    0    0  0.87564880482E+01 -0.48297217563E+01 -0.38830373624E+02  0.40097384094E+02  0.51100000000E-03 0. -1.
         11    1    3    3    0    0 -0.87564880482E+01  0.48297217563E+01 -0.38518049494E+02  0.39795005117E+02  0.51100000000E-03 0.  1.
<mgrwt>
<rscale>  0 0.20000382E+02</rscale>
<asrwt>0</asrwt>
<pdfrwt beam="1">  1        4 0.19568976E-03 0.20000382E+02</pdfrwt>
<pdfrwt beam="2">  1       -4 0.12095443E-01 0.20000382E+02</pdfrwt>
<totfact> 0.10414281E+06</totfact>
</mgrwt>
</event>
<event>
 5    1  0.1154861E-006  0.2000029E+02  0.7818608E-02  0.1745322E+00
         -4   -1    0    0    0  501 -0.00000000000E+00  0.00000000000E+00  0.96379815722E+02  0.96390275850E+02  0.14200000000E+01 0. -1.
          4   -1    0    0  501    0  0.00000000000E+00 -0.00000000000E+00 -0.53622411608E+00  0.15178722946E+01  0.14200000000E+01 0.  1.
       1023    2    1    2    0    0  0.00000000000E+00  0.00000000000E+00  0.95843591606E+02  0.97908148145E+02  0.20000285532E+02 0.  0.
        -11    1    3    3    0    0 -0.54715113738E+01 -0.83704384501E+01  0.48089850413E+02  0.49118584971E+02  0.51100000000E-03 0. -1.
         11    1    3    3    0    0  0.54715113738E+01  0.83704384501E+01  0.47753741192E+02  0.48789563174E+02  0.51100000000E-03 0.  1.
<mgrwt>
<rscale>  0 0.20000286E+02</rscale>
<asrwt>0</asrwt>
<pdfrwt beam="2">  1        4 0.15881210E-03 0.20000286E+02</pdfrwt>
<pdfrwt beam="1">  1       -4 0.14903974E-01 0.20000286E+02</pdfrwt>
<totfact> 0.98609448E+05</totfact>
</mgrwt>
</event>
<event>
 5    1  0.1154861E-006  0.2000023E+02  0.7818608E-02  0.1745324E+00
          4   -1    0    0  501    0  0.00000000000E+00  0.00000000000E+00  0.10021830798E+02  0.10121931266E+02  0.14200000000E+01 0.  1.
         -4   -1    0    0    0  501 -0.00000000000E+00 -0.00000000000E+00 -0.97772109035E+01  0.98797901320E+01  0.14200000000E+01 0. -1.
       1023    2    1    2    0    0  0.00000000000E+00  0.00000000000E+00  0.24461989492E+00  0.20001721398E+02  0.20000225498E+02 0.  0.
        -11    1    3    3    0    0 -0.97451738983E+01 -0.22436179747E+01  0.11797248766E+00  0.10000807652E+02  0.51100000000E-03 0.  1.
         11    1    3    3    0    0  0.97451738983E+01  0.22436179747E+01  0.12664740726E+00  0.10000913746E+02  0.51100000000E-03 0. -1.
<mgrwt>
<rscale>  0 0.20000225E+02</rscale>
<asrwt>0</asrwt>
<pdfrwt beam="1">  1        4 0.15574109E-02 0.20000225E+02</pdfrwt>
<pdfrwt beam="2">  1       -4 0.15197770E-02 0.20000225E+02</pdfrwt>
<totfact> 0.13013643E+06</totfact>
</mgrwt>
</event>
<event>
 5    1  0.1154861E-006  0.2000078E+02  0.7818608E-02  0.1745313E+00
         -4   -1    0    0    0  501 -0.00000000000E+00  0.00000000000E+00  0.47017782416E+02  0.47039220479E+02  0.14200000000E+01 0.  1.
          4   -1    0    0  501    0  0.00000000000E+00 -0.00000000000E+00 -0.18655701056E+01  0.23445152631E+01  0.14200000000E+01 0. -1.
       1023    2    1    2    0    0  0.00000000000E+00  0.00000000000E+00  0.45152212310E+02  0.49383735742E+02  0.20000776969E+02 0.  0.
        -11    1    3    3    0    0 -0.57350496782E+01  0.81922521580E+01  0.22731861541E+02  0.24834277110E+02  0.51100000000E-03 0. -1.
         11    1    3    3    0    0  0.57350496782E+01 -0.81922521580E+01  0.22420350769E+02  0.24549458632E+02  0.51100000000E-03 0.  1.
<mgrwt>
<rscale>  0 0.20000777E+02</rscale>
<asrwt>0</asrwt>
<pdfrwt beam="2">  1        4 0.32550180E-03 0.20000777E+02</pdfrwt>
<pdfrwt beam="1">  1       -4 0.72719960E-02 0.20000777E+02</pdfrwt>
<totfact> 0.11545307E+06</totfact>
</mgrwt>
</event>
<event>
 5    1  0.1154861E-006  0.2000087E+02  0.7818608E-02  0.1745311E+00
          4   -1    0    0  501    0  0.00000000000E+00  0.00000000000E+00  0.24575999059E+00  0.14411099795E+01  0.14200000000E+01 0.  1.
         -4   -1    0    0    0  501 -0.00000000000E+00 -0.00000000000E+00 -0.11737042143E+03  0.11737901102E+03  0.14200000000E+01 0. -1.
       1023    2    1    2    0    0  0.00000000000E+00  0.00000000000E+00 -0.11712466144E+03  0.11882012099E+03  0.20000870872E+02 0.  0.
        -11    1    3    3    0    0 -0.99852365113E+01 -0.54408910481E+00 -0.59084559590E+02  0.59924837616E+02  0.51100000000E-03 0. -1.
         11    1    3    3    0    0  0.99852365113E+01  0.54408910481E+00 -0.58040101851E+02  0.58895283379E+02  0.51100000000E-03 0.  1.
<mgrwt>
<rscale>  0 0.20000871E+02</rscale>
<asrwt>0</asrwt>
<pdfrwt beam="1">  1        4 0.13042006E-03 0.20000871E+02</pdfrwt>
<pdfrwt beam="2">  1       -4 0.18149586E-01 0.20000871E+02</pdfrwt>
<totfact> 0.92948217E+05</totfact>
</mgrwt>
</event>
<event>
 5    1  0.1189246E-006  0.2000129E+02  0.7818608E-02  0.1745302E+00
         -4   -1    0    0    0  501 -0.00000000000E+00  0.00000000000E+00  0.16667580524E+02  0.16727959843E+02  0.14200000000E+01 0.  1.
          4   -1    0    0  501    0  0.00000000000E+00 -0.00000000000E+00 -0.58440416130E+01  0.60140853315E+01  0.14200000000E+01 0. -1.
       1023    2    1    2    0    0  0.00000000000E+00  0.00000000000E+00  0.10823538911E+02  0.22742045175E+02  0.20001290563E+02 0.  0.
        -11    1    3    3    0    0  0.21922325400E+01  0.97572803612E+01  0.53548926824E+01  0.11343953432E+02  0.51100000000E-03 0. -1.
         11    1    3    3    0    0 -0.21922325400E+01 -0.97572803612E+01  0.54686462285E+01  0.11398091743E+02  0.51100000000E-03 0.  1.
<mgrwt>
<rscale>  0 0.20001291E+02</rscale>
<asrwt>0</asrwt>
<pdfrwt beam="2">  1        4 0.91680816E-03 0.20001291E+02</pdfrwt>
<pdfrwt beam="1">  1       -4 0.25819680E-02 0.20001291E+02</pdfrwt>
<totfact> 0.12851677E+06</totfact>
</mgrwt>
</event>
<event>
 5    1  0.1154861E-006  0.2000201E+02  0.7818608E-02  0.1745288E+00
          4   -1    0    0  501    0  0.00000000000E+00  0.00000000000E+00  0.10704788343E+03  0.10705730123E+03  0.14200000000E+01 0.  1.
         -4   -1    0    0    0  501 -0.00000000000E+00 -0.00000000000E+00 -0.37981380129E+00  0.14699178629E+01  0.14200000000E+01 0. -1.
       1023    2    1    2    0    0  0.00000000000E+00  0.00000000000E+00  0.10666806962E+03  0.10852721909E+03  0.20002005047E+02 0.  0.
        -11    1    3    3    0    0  0.12985759190E+01  0.99163138083E+01  0.53451945208E+02  0.54379500050E+02  0.51100000000E-03 0.  1.
         11    1    3    3    0    0 -0.12985759190E+01 -0.99163138083E+01  0.53216124417E+02  0.54147719039E+02  0.51100000000E-03 0. -1.
<mgrwt>
<rscale>  0 0.20002005E+02</rscale>
<asrwt>0</asrwt>
<pdfrwt beam="1">  1        4 0.16553488E-01 0.20002005E+02</pdfrwt>
<pdfrwt beam="2">  1       -4 0.14301146E-03 0.20002005E+02</pdfrwt>
<totfact> 0.95629607E+05</totfact>
</mgrwt>
</event>
<event>
 5    1  0.1186660E-006  0.2000107E+02  0.7818608E-02  0.1745307E+00
         -4   -1    0    0    0  501 -0.00000000000E+00  0.00000000000E+00  0.51742924086E+01  0.53656035941E+01  0.14200000000E+01 0. -1.
          4   -1    0    0  501    0  0.00000000000E+00 -0.00000000000E+00 -0.18758907892E+02  0.18812576254E+02  0.14200000000E+01 0.  1.
       1023    2    1    2    0    0  0.00000000000E+00  0.00000000000E+00 -0.13584615483E+02  0.24178179848E+02  0.20001065045E+02 0.  0.
        -11    1    3    3    0    0  0.21816149020E+01  0.97596704245E+01 -0.67999620630E+01  0.12093390538E+02  0.51100000000E-03 0. -1.
         11    1    3    3    0    0 -0.21816149020E+01 -0.97596704245E+01 -0.67846534204E+01  0.12084789310E+02  0.51100000000E-03 0.  1.
<mgrwt>
<rscale>  0 0.20001065E+02</rscale>
<asrwt>0</asrwt>
<pdfrwt beam="2">  1        4 0.29048304E-02 0.20001065E+02</pdfrwt>
<pdfrwt beam="1">  1       -4 0.81488958E-03 0.20001065E+02</pdfrwt>
<totfact> 0.12770335E+06</totfact>
</mgrwt>
</event>
<event>
 5    1  0.1154861E-006  0.2000060E+02  0.7818608E-02  0.1745316E+00
          4   -1    0    0  501    0  0.00000000000E+00  0.00000000000E+00  0.57237403812E+01  0.58972539331E+01  0.14200000000E+01 0. -1.
         -4   -1    0    0    0  501 -0.00000000000E+00 -0.00000000000E+00 -0.17007727017E+02  0.17066903008E+02  0.14200000000E+01 0.  1.
       1023    2    1    2    0    0  0.00000000000E+00  0.00000000000E+00 -0.11283986636E+02  0.22964156941E+02  0.20000603731E+02 0.  0.
        -11    1    3    3    0    0 -0.97530941157E+01  0.22087303613E+01 -0.55632575563E+01  0.11443389775E+02  0.51100000000E-03 0.  1.
         11    1    3    3    0    0  0.97530941157E+01 -0.22087303613E+01 -0.57207290792E+01  0.11520767166E+02  0.51100000000E-03 0. -1.
<mgrwt>
<rscale>  0 0.20000604E+02</rscale>
<asrwt>0</asrwt>
<pdfrwt beam="1">  1        4 0.89847465E-03 0.20000604E+02</pdfrwt>
<pdfrwt beam="2">  1       -4 0.26344726E-02 0.20000604E+02</pdfrwt>
<totfact> 0.12839838E+06</totfact>
</mgrwt>
</event>
<event>
 5    1  0.1154861E-006  0.2000070E+02  0.7818608E-02  0.1745314E+00
         -4   -1    0    0    0  501 -0.00000000000E+00  0.00000000000E+00  0.92417792868E+01  0.93502344562E+01  0.14200000000E+01 0.  1.
          4   -1    0    0  501    0  0.00000000000E+00 -0.00000000000E+00 -0.10601995958E+02  0.10696668561E+02  0.14200000000E+01 0. -1.
       1023    2    1    2    0    0  0.00000000000E+00  0.00000000000E+00 -0.13602166714E+01  0.20046903017E+02  0.20000703267E+02 0.  0.
        -11    1    3    3    0    0 -0.99703080675E+01  0.77451499169E+00 -0.66930849591E+00  0.10022718721E+02  0.51100000000E-03 0. -1.
         11    1    3    3    0    0  0.99703080675E+01 -0.77451499169E+00 -0.69090817544E+00  0.10024184296E+02  0.51100000000E-03 0.  1.
<mgrwt>
<rscale>  0 0.20000703E+02</rscale>
<asrwt>0</asrwt>
<pdfrwt beam="2">  1        4 0.16467015E-02 0.20000703E+02</pdfrwt>
<pdfrwt beam="1">  1       -4 0.14374374E-02 0.20000703E+02</pdfrwt>
<totfact> 0.13010327E+06</totfact>
</mgrwt>
</event>
<event>
 5    1  0.1154861E-006  0.2000054E+02  0.7818608E-02  0.1745317E+00
         -4   -1    0    0    0  501 -0.00000000000E+00  0.00000000000E+00  0.12159853652E+01  0.18694973679E+01  0.14200000000E+01 0. -1.
          4   -1    0    0  501    0  0.00000000000E+00 -0.00000000000E+00 -0.64160164907E+02  0.64175876783E+02  0.14200000000E+01 0.  1.
       1023    2    1    2    0    0  0.00000000000E+00  0.00000000000E+00 -0.62944179541E+02  0.66045374151E+02  0.20000542707E+02 0.  0.
        -11    1    3    3    0    0 -0.99088691791E+01  0.13479000399E+01 -0.31650038760E+02  0.33192280378E+02  0.51100000000E-03 0. -1.
         11    1    3    3    0    0  0.99088691791E+01 -0.13479000399E+01 -0.31294140781E+02  0.32853093773E+02  0.51100000000E-03 0.  1.
<mgrwt>
<rscale>  0 0.20000543E+02</rscale>
<asrwt>0</asrwt>
<pdfrwt beam="2">  1        4 0.99222713E-02 0.20000543E+02</pdfrwt>
<pdfrwt beam="1">  1       -4 0.23855348E-03 0.20000543E+02</pdfrwt>
<totfact> 0.10892088E+06</totfact>
</mgrwt>
</event>
<event>
 5    1  0.1154861E-006  0.2000036E+02  0.7818608E-02  0.1745321E+00
         -4   -1    0    0    0  501 -0.00000000000E+00  0.00000000000E+00  0.49866972856E+00  0.15050154478E+01  0.14200000000E+01 0.  1.
          4   -1    0    0  501    0  0.00000000000E+00 -0.00000000000E+00 -0.98805669442E+02  0.98815872783E+02  0.14200000000E+01 0. -1.
       1023    2    1    2    0    0  0.00000000000E+00  0.00000000000E+00 -0.98306999714E+02  0.10032088823E+03  0.20000360566E+02 0.  0.
        -11    1    3    3    0    0  0.89920146871E+01  0.43755000472E+01 -0.48914168002E+02  0.49925916720E+02  0.51100000000E-03 0. -1.
         11    1    3    3    0    0 -0.89920146871E+01 -0.43755000472E+01 -0.49392831712E+02  0.50394971511E+02  0.51100000000E-03 0.  1.
<mgrwt>
<rscale>  0 0.20000361E+02</rscale>
<asrwt>0</asrwt>
<pdfrwt beam="2">  1        4 0.15279061E-01 0.20000361E+02</pdfrwt>
<pdfrwt beam="1">  1       -4 0.15491458E-03 0.20000361E+02</pdfrwt>
<totfact> 0.97917701E+05</totfact>
</mgrwt>
</event>
<event>
 5    1  0.1154861E-006  0.2000215E+02  0.7818608E-02  0.1745285E+00
          4   -1    0    0  501    0  0.00000000000E+00  0.00000000000E+00  0.38909036890E+01  0.41419236494E+01  0.14200000000E+01 0. -1.
         -4   -1    0    0    0  501 -0.00000000000E+00 -0.00000000000E+00 -0.24631070423E+02  0.24671968511E+02  0.14200000000E+01 0.  1.
       1023    2    1    2    0    0  0.00000000000E+00  0.00000000000E+00 -0.20740166734E+02  0.28813892160E+02  0.20002146516E+02 0.  0.
        -11    1    3    3    0    0 -0.62753250439E+01  0.77861032715E+01 -0.10174904865E+02  0.14266457088E+02  0.51100000000E-03 0. -1.
         11    1    3    3    0    0  0.62753250439E+01 -0.77861032715E+01 -0.10565261869E+02  0.14547435072E+02  0.51100000000E-03 0.  1.
<mgrwt>
<rscale>  0 0.20002147E+02</rscale>
<asrwt>0</asrwt>
<pdfrwt beam="1">  1        4 0.62105582E-03 0.20002147E+02</pdfrwt>
<pdfrwt beam="2">  1       -4 0.38118506E-02 0.20002147E+02</pdfrwt>
<totfact> 0.12515430E+06</totfact>
</mgrwt>
</event>
<event>
 5    1  0.1154861E-006  0.2000031E+02  0.7818608E-02  0.1745322E+00
         -4   -1    0    0    0  501 -0.00000000000E+00  0.00000000000E+00  0.58972395711E+02  0.58989489368E+02  0.14200000000E+01 0.  1.
          4   -1    0    0  501    0  0.00000000000E+00 -0.00000000000E+00 -0.13780280623E+01  0.19787272021E+01  0.14200000000E+01 0. -1.
       1023    2    1    2    0    0  0.00000000000E+00  0.00000000000E+00  0.57594367648E+02  0.60968216570E+02  0.20000306170E+02 0.  0.
        -11    1    3    3    0    0 -0.99333685497E+01  0.11532709103E+01  0.28690843457E+02  0.30383652563E+02  0.51100000000E-03 0.  1.
         11    1    3    3    0    0  0.99333685497E+01 -0.11532709103E+01  0.28903524191E+02  0.30584564007E+02  0.51100000000E-03 0. -1.
<mgrwt>
<rscale>  0 0.20000306E+02</rscale>
<asrwt>0</asrwt>
<pdfrwt beam="2">  1        4 0.25952681E-03 0.20000306E+02</pdfrwt>
<pdfrwt beam="1">  1       -4 0.91201997E-02 0.20000306E+02</pdfrwt>
<totfact> 0.11081496E+06</totfact>
</mgrwt>
</event>
<event>
 5    1  0.1154861E-006  0.2000055E+02  0.7818608E-02  0.1745317E+00
          4   -1    0    0  501    0  0.00000000000E+00  0.00000000000E+00  0.54828733422E+02  0.54847118508E+02  0.14200000000E+01 0.  1.
         -4   -1    0    0    0  501 -0.00000000000E+00 -0.00000000000E+00 -0.15259790670E+01  0.20844692641E+01  0.14200000000E+01 0. -1.
       1023    2    1    2    0    0  0.00000000000E+00  0.00000000000E+00  0.53302754355E+02  0.56931587772E+02  0.20000551604E+02 0.  0.
        -11    1    3    3    0    0 -0.72772259890E+01  0.68590530370E+01  0.26736257930E+02  0.28545264318E+02  0.51100000000E-03 0.  1.
         11    1    3    3    0    0  0.72772259890E+01 -0.68590530370E+01  0.26566496425E+02  0.28386323454E+02  0.51100000000E-03 0. -1.
<mgrwt>
<rscale>  0 0.20000552E+02</rscale>
<asrwt>0</asrwt>
<pdfrwt beam="1">  1        4 0.84795646E-02 0.20000552E+02</pdfrwt>
<pdfrwt beam="2">  1       -4 0.27914104E-03 0.20000552E+02</pdfrwt>
<totfact> 0.11237506E+06</totfact>
</mgrwt>
</event>
<event>
 5    1  0.1205964E-006  0.2000127E+02  0.7818608E-02  0.1745303E+00
          4   -1    0    0  501    0  0.00000000000E+00  0.00000000000E+00  0.31110500349E+02  0.31142890552E+02  0.14200000000E+01 0. -1.
         -4   -1    0    0    0  501 -0.00000000000E+00 -0.00000000000E+00 -0.30221204077E+01  0.33391034363E+01  0.14200000000E+01 0.  1.
       1023    2    1    2    0    0  0.00000000000E+00  0.00000000000E+00  0.28088379941E+02  0.34481993989E+02  0.20001270503E+02 0.  0.
        -11    1    3    3    0    0 -0.52795059877E+01 -0.84930811930E+01  0.13898990039E+02  0.17122719877E+02  0.51100000000E-03 0.  1.
         11    1    3    3    0    0  0.52795059877E+01  0.84930811930E+01  0.14189389902E+02  0.17359274111E+02  0.51100000000E-03 0. -1.
<mgrwt>
<rscale>  0 0.20001271E+02</rscale>
<asrwt>0</asrwt>
<pdfrwt beam="1">  1        4 0.48131059E-02 0.20001271E+02</pdfrwt>
<pdfrwt beam="2">  1       -4 0.49181644E-03 0.20001271E+02</pdfrwt>
<totfact> 0.12226011E+06</totfact>
</mgrwt>
</event>
<event>
 5    1  0.1154861E-006  0.2000065E+02  0.7818608E-02  0.1745315E+00
          4   -1    0    0  501    0  0.00000000000E+00  0.00000000000E+00  0.55293877745E+01  0.57088115366E+01  0.14200000000E+01 0. -1.
         -4   -1    0    0    0  501 -0.00000000000E+00 -0.00000000000E+00 -0.17589104766E+02  0.17646331247E+02  0.14200000000E+01 0.  1.
       1023    2    1    2    0    0  0.00000000000E+00  0.00000000000E+00 -0.12059716991E+02  0.23355142783E+02  0.20000648002E+02 0.  0.
        -11    1    3    3    0    0 -0.99997517352E+01  0.10671577950E+00 -0.60210544739E+01  0.11673025326E+02  0.51100000000E-03 0.  1.
         11    1    3    3    0    0  0.99997517352E+01 -0.10671577950E+00 -0.60386625174E+01  0.11682117457E+02  0.51100000000E-03 0. -1.
<mgrwt>
<rscale>  0 0.20000648E+02</rscale>
<asrwt>0</asrwt>
<pdfrwt beam="1">  1        4 0.86887892E-03 0.20000648E+02</pdfrwt>
<pdfrwt beam="2">  1       -4 0.27242200E-02 0.20000648E+02</pdfrwt>
<totfact> 0.12817458E+06</totfact>
</mgrwt>
</event>
<event>
 5    1  0.1154861E-006  0.2000553E+02  0.7818608E-02  0.1745218E+00
         -4   -1    0    0    0  501 -0.00000000000E+00  0.00000000000E+00  0.79633556118E+00  0.16280510821E+01  0.14200000000E+01 0.  1.
          4   -1    0    0  501    0  0.00000000000E+00 -0.00000000000E+00 -0.81700736460E+02  0.81713075687E+02  0.14200000000E+01 0. -1.
       1023    2    1    2    0    0  0.00000000000E+00  0.00000000000E+00 -0.80904400899E+02  0.83341126769E+02  0.20005532390E+02 0.  0.
        -11    1    3    3    0    0 -0.77476473218E+01 -0.63237313648E+01 -0.41282396216E+02  0.42476485907E+02  0.51100000000E-03 0. -1.
         11    1    3    3    0    0  0.77476473218E+01  0.63237313648E+01 -0.39622004683E+02  0.40864640862E+02  0.51100000000E-03 0.  1.
<mgrwt>
<rscale>  0 0.20005532E+02</rscale>
<asrwt>0</asrwt>
<pdfrwt beam="2">  1        4 0.12634267E-01 0.20005532E+02</pdfrwt>
<pdfrwt beam="1">  1       -4 0.18744052E-03 0.20005532E+02</pdfrwt>
<totfact> 0.10297589E+06</totfact>
</mgrwt>
</event>
<event>
 5    1  0.1184208E-006  0.2000136E+02  0.7818608E-02  0.1745301E+00
          4   -1    0    0  501    0  0.00000000000E+00  0.00000000000E+00  0.12250976554E+02  0.12332997467E+02  0.14200000000E+01 0.  1.
         -4   -1    0    0    0  501 -0.00000000000E+00 -0.00000000000E+00 -0.79916665751E+01  0.81168426526E+01  0.14200000000E+01 0. -1.
       1023    2    1    2    0    0  0.00000000000E+00  0.00000000000E+00  0.42593099788E+01  0.20449840120E+02  0.20001355940E+02 0.  0.
        -11    1    3    3    0    0 -0.82065665340E+01 -0.57153741556E+01  0.21112633101E+01  0.10221089425E+02  0.51100000000E-03 0.  1.
         11    1    3    3    0    0  0.82065665340E+01  0.57153741556E+01  0.21480466687E+01  0.10228750694E+02  0.51100000000E-03 0. -1.
<mgrwt>
<rscale>  0 0.20001356E+02</rscale>
<asrwt>0</asrwt>
<pdfrwt beam="1">  1        4 0.19007038E-02 0.20001356E+02</pdfrwt>
<pdfrwt beam="2">  1       -4 0.12454254E-02 0.20001356E+02</pdfrwt>
<totfact> 0.12985496E+06</totfact>
</mgrwt>
</event>
<event>
 5    1  0.1154861E-006  0.2000075E+02  0.7818608E-02  0.1745313E+00
          4   -1    0    0  501    0  0.00000000000E+00  0.00000000000E+00  0.12608096809E+01  0.18989578857E+01  0.14200000000E+01 0. -1.
         -4   -1    0    0    0  501 -0.00000000000E+00 -0.00000000000E+00 -0.62652720094E+02  0.62668809907E+02  0.14200000000E+01 0.  1.
       1023    2    1    2    0    0  0.00000000000E+00  0.00000000000E+00 -0.61391910413E+02  0.64567767792E+02  0.20000749325E+02 0.  0.
        -11    1    3    3    0    0 -0.93175760146E+01 -0.36308949260E+01 -0.30428332406E+02  0.32029424504E+02  0.51100000000E-03 0. -1.
         11    1    3    3    0    0  0.93175760146E+01  0.36308949260E+01 -0.30963578006E+02  0.32538343289E+02  0.51100000000E-03 0.  1.
<mgrwt>
<rscale>  0 0.20000749E+02</rscale>
<asrwt>0</asrwt>
<pdfrwt beam="1">  1        4 0.24429677E-03 0.20000749E+02</pdfrwt>
<pdfrwt beam="2">  1       -4 0.96892041E-02 0.20000749E+02</pdfrwt>
<totfact> 0.10946071E+06</totfact>
</mgrwt>
</event>
<event>
 5    1  0.1154861E-006  0.2000220E+02  0.7818608E-02  0.1745284E+00
         -4   -1    0    0    0  501 -0.00000000000E+00  0.00000000000E+00  0.94499727196E+02  0.94510395408E+02  0.14200000000E+01 0.  1.
          4   -1    0    0  501    0  0.00000000000E+00 -0.00000000000E+00 -0.56652398361E+00  0.15288392407E+01  0.14200000000E+01 0. -1.
       1023    2    1    2    0    0  0.00000000000E+00  0.00000000000E+00  0.93933203213E+02  0.96039234649E+02  0.20002198032E+02 0.  0.
        -11    1    3    3    0    0 -0.90983125312E+01  0.41523832756E+01  0.47063047658E+02  0.48113948423E+02  0.51100000000E-03 0. -1.
         11    1    3    3    0    0  0.90983125312E+01 -0.41523832756E+01  0.46870155555E+02  0.47925286226E+02  0.51100000000E-03 0.  1.
<mgrwt>
<rscale>  0 0.20002198E+02</rscale>
<asrwt>0</asrwt>
<pdfrwt beam="2">  1        4 0.16200239E-03 0.20002198E+02</pdfrwt>
<pdfrwt beam="1">  1       -4 0.14613267E-01 0.20002198E+02</pdfrwt>
<totfact> 0.99133395E+05</totfact>
</mgrwt>
</event>
<event>
 5    1  0.1154861E-006  0.2000287E+02  0.7818608E-02  0.1745271E+00
         -4   -1    0    0    0  501 -0.00000000000E+00  0.00000000000E+00  0.13520238371E+02  0.13594603547E+02  0.14200000000E+01 0. -1.
          4   -1    0    0  501    0  0.00000000000E+00 -0.00000000000E+00 -0.72345736309E+01  0.73726152497E+01  0.14200000000E+01 0.  1.
       1023    2    1    2    0    0  0.00000000000E+00  0.00000000000E+00  0.62856647396E+01  0.20967218797E+02  0.20002866866E+02 0.  0.
        -11    1    3    3    0    0  0.21473409377E+01 -0.97681586255E+01  0.31700538497E+01  0.10491769999E+02  0.51100000000E-03 0. -1.
         11    1    3    3    0    0 -0.21473409377E+01  0.97681586255E+01  0.31156108900E+01  0.10475448798E+02  0.51100000000E-03 0.  1.
<mgrwt>
<rscale>  0 0.20002867E+02</rscale>
<asrwt>0</asrwt>
<pdfrwt beam="2">  1        4 0.11293503E-02 0.20002867E+02</pdfrwt>
<pdfrwt beam="1">  1       -4 0.20963756E-02 0.20002867E+02</pdfrwt>
<totfact> 0.12952897E+06</totfact>
</mgrwt>
</event>
<event>
 5    1  0.1154861E-006  0.2000035E+02  0.7818608E-02  0.1745321E+00
         -4   -1    0    0    0  501 -0.00000000000E+00  0.00000000000E+00  0.99040618703E+01  0.10005340650E+02  0.14200000000E+01 0.  1.
          4   -1    0    0  501    0  0.00000000000E+00 -0.00000000000E+00 -0.98936246235E+01  0.99950091641E+01  0.14200000000E+01 0. -1.
       1023    2    1    2    0    0  0.00000000000E+00  0.00000000000E+00  0.10437246856E-01  0.20000349815E+02  0.20000347091E+02 0.  0.
        -11    1    3    3    0    0 -0.80901439508E+01  0.58781001819E+01  0.36520184864E-01  0.10000191242E+02  0.51100000000E-03 0. -1.
         11    1    3    3    0    0  0.80901439508E+01 -0.58781001819E+01 -0.26082938008E-01  0.10000158572E+02  0.51100000000E-03 0.  1.
<mgrwt>
<rscale>  0 0.20000347E+02</rscale>
<asrwt>0</asrwt>
<pdfrwt beam="2">  1        4 0.15376856E-02 0.20000347E+02</pdfrwt>
<pdfrwt beam="1">  1       -4 0.15392913E-02 0.20000347E+02</pdfrwt>
<totfact> 0.13013563E+06</totfact>
</mgrwt>
</event>
<event>
 4    1  0.1154861E-006  0.2001420E+02  0.7818608E-02  0.1745046E+00
          4   -1    0    0  501    0  0.00000000000E+00  0.00000000000E+00  0.55143092303E+01  0.56942081352E+01  0.14200000000E+01 0.  1.
         -4   -1    0    0    0  501 -0.00000000000E+00 -0.00000000000E+00 -0.17660060172E+02  0.17717057467E+02  0.14200000000E+01 0. -1.
        -11    1    1    2    0    0 -0.24548646049E+01  0.96995042120E+01 -0.58531638221E+01  0.11591646526E+02  0.51100000000E-03 0. -1.
         11    1    1    2    0    0  0.24548646049E+01 -0.96995042120E+01 -0.62925871195E+01  0.11819619076E+02  0.51100000000E-03 0.  1.
<mgrwt>
<rscale>  0 0.20014197E+02</rscale>
<asrwt>0</asrwt>
<pdfrwt beam="1">  1        4 0.86657806E-03 0.20014197E+02</pdfrwt>
<pdfrwt beam="2">  1       -4 0.27351551E-02 0.20014197E+02</pdfrwt>
<totfact> 0.12796589E+06</totfact>
</mgrwt>
</event>
<event>
 5    1  0.1186043E-006  0.2000092E+02  0.7818608E-02  0.1745310E+00
          4   -1    0    0  501    0  0.00000000000E+00  0.00000000000E+00  0.31886876600E+02  0.31918478963E+02  0.14200000000E+01 0.  1.
         -4   -1    0    0    0  501 -0.00000000000E+00 -0.00000000000E+00 -0.29406891829E+01  0.32655861450E+01  0.14200000000E+01 0. -1.
       1023    2    1    2    0    0  0.00000000000E+00  0.00000000000E+00  0.28946187417E+02  0.35184065108E+02  0.20000916767E+02 0.  0.
        -11    1    3    3    0    0 -0.14949353275E+01  0.98879156355E+01  0.14576573992E+02  0.17677166539E+02  0.51100000000E-03 0.  1.
         11    1    3    3    0    0  0.14949353275E+01 -0.98879156355E+01  0.14369613425E+02  0.17506898569E+02  0.51100000000E-03 0. -1.
<mgrwt>
<rscale>  0 0.20000917E+02</rscale>
<asrwt>0</asrwt>
<pdfrwt beam="1">  1        4 0.49330964E-02 0.20000917E+02</pdfrwt>
<pdfrwt beam="2">  1       -4 0.47983674E-03 0.20000917E+02</pdfrwt>
<totfact> 0.12191797E+06</totfact>
</mgrwt>
</event>
<event>
 5    1  0.1154861E-006  0.2000024E+02  0.7818608E-02  0.1745323E+00
         -4   -1    0    0    0  501 -0.00000000000E+00  0.00000000000E+00  0.35919593932E+02  0.35947651220E+02  0.14200000000E+01 0. -1.
          4   -1    0    0  501    0  0.00000000000E+00 -0.00000000000E+00 -0.25718616035E+01  0.29378345950E+01  0.14200000000E+01 0.  1.
       1023    2    1    2    0    0  0.00000000000E+00  0.00000000000E+00  0.33347732328E+02  0.38885485815E+02  0.20000243889E+02 0.  0.
        -11    1    3    3    0    0  0.29044028440E+01  0.95690485380E+01  0.16700865486E+02  0.19465897206E+02  0.51100000000E-03 0.  1.
         11    1    3    3    0    0 -0.29044028440E+01 -0.95690485380E+01  0.16646866842E+02  0.19419588609E+02  0.51100000000E-03 0. -1.
<mgrwt>
<rscale>  0 0.20000244E+02</rscale>
<asrwt>0</asrwt>
<pdfrwt beam="2">  1        4 0.42598107E-03 0.20000244E+02</pdfrwt>
<pdfrwt beam="1">  1       -4 0.55564009E-02 0.20000244E+02</pdfrwt>
<totfact> 0.12014506E+06</totfact>
</mgrwt>
</event>
<event>
 5    1  0.1154861E-006  0.2000072E+02  0.7818608E-02  0.1745314E+00
          4   -1    0    0  501    0  0.00000000000E+00  0.00000000000E+00  0.18487349614E+01  0.23311415568E+01  0.14200000000E+01 0.  1.
         -4   -1    0    0    0  501 -0.00000000000E+00 -0.00000000000E+00 -0.47357453726E+02  0.47378738094E+02  0.14200000000E+01 0. -1.
       1023    2    1    2    0    0  0.00000000000E+00  0.00000000000E+00 -0.45508718764E+02  0.49709879651E+02  0.20000716270E+02 0.  0.
        -11    1    3    3    0    0  0.85489285692E+01  0.51887235740E+01 -0.22782758770E+02  0.24880939079E+02  0.51100000000E-03 0.  1.
         11    1    3    3    0    0 -0.85489285692E+01 -0.51887235740E+01 -0.22725959994E+02  0.24828940572E+02  0.51100000000E-03 0. -1.
<mgrwt>
<rscale>  0 0.20000716E+02</rscale>
<asrwt>0</asrwt>
<pdfrwt beam="1">  1        4 0.32316626E-03 0.20000716E+02</pdfrwt>
<pdfrwt beam="2">  1       -4 0.73245067E-02 0.20000716E+02</pdfrwt>
<totfact> 0.11531602E+06</totfact>
</mgrwt>
</event>
<event>
 5    1  0.1154861E-006  0.2000041E+02  0.7818608E-02  0.1745320E+00
          4   -1    0    0  501    0  0.00000000000E+00  0.00000000000E+00  0.15281738316E+02  0.15347570686E+02  0.14200000000E+01 0. -1.
         -4   -1    0    0    0  501 -0.00000000000E+00 -0.00000000000E+00 -0.63859752910E+01  0.65419477541E+01  0.14200000000E+01 0.  1.
       1023    2    1    2    0    0  0.00000000000E+00  0.00000000000E+00  0.88957630254E+01  0.21889518440E+02  0.20000410439E+02 0.  0.
        -11    1    3    3    0    0 -0.82684697981E+01 -0.56245125749E+01  0.44883861572E+01  0.10961220054E+02  0.51100000000E-03 0. -1.
         11    1    3    3    0    0  0.82684697981E+01  0.56245125749E+01  0.44073768682E+01  0.10928298387E+02  0.51100000000E-03 0.  1.
<mgrwt>
<rscale>  0 0.20000410E+02</rscale>
<asrwt>0</asrwt>
<pdfrwt beam="1">  1        4 0.23680985E-02 0.20000410E+02</pdfrwt>
<pdfrwt beam="2">  1       -4 0.99951966E-03 0.20000410E+02</pdfrwt>
<totfact> 0.12902103E+06</totfact>
</mgrwt>
</event>
<event>
 5    1  0.1203825E-006  0.2000181E+02  0.7818608E-02  0.1745292E+00
          4   -1    0    0  501    0  0.00000000000E+00  0.00000000000E+00  0.21894288846E+02  0.21940289061E+02  0.14200000000E+01 0. -1.
         -4   -1    0    0    0  501 -0.00000000000E+00 -0.00000000000E+00 -0.44057221688E+01  0.46289078440E+01  0.14200000000E+01 0.  1.
       1023    2    1    2    0    0  0.00000000000E+00  0.00000000000E+00  0.17488566678E+02  0.26569196905E+02  0.20001806412E+02 0.  0.
        -11    1    3    3    0    0  0.98137346570E+01 -0.19215653977E+01  0.85748838986E+01  0.13173095142E+02  0.51100000000E-03 0.  1.
         11    1    3    3    0    0 -0.98137346570E+01  0.19215653977E+01  0.89136827789E+01  0.13396101763E+02  0.51100000000E-03 0. -1.
<mgrwt>
<rscale>  0 0.20001806E+02</rscale>
<asrwt>0</asrwt>
<pdfrwt beam="1">  1        4 0.33890587E-02 0.20001806E+02</pdfrwt>
<pdfrwt beam="2">  1       -4 0.69851002E-03 0.20001806E+02</pdfrwt>
<totfact> 0.12636635E+06</totfact>
</mgrwt>
</event>
<event>
 4    1  0.1154861E-006  0.2003304E+02  0.7818608E-02  0.1744672E+00
          4   -1    0    0  501    0  0.00000000000E+00  0.00000000000E+00  0.25606497815E+02  0.25645840410E+02  0.14200000000E+01 0.  1.
         -4   -1    0    0    0  501 -0.00000000000E+00 -0.00000000000E+00 -0.37456578430E+01  0.40057898943E+01  0.14200000000E+01 0.  1.
        -11    1    1    2    0    0  0.99520035829E+01  0.11332571654E+01  0.10836033239E+02  0.14756227964E+02  0.51100000000E-03 0.  1.
         11    1    1    2    0    0 -0.99520035829E+01 -0.11332571654E+01  0.11024806733E+02  0.14895402340E+02  0.51100000000E-03 0. -1.
<mgrwt>
<rscale>  0 0.20033044E+02</rscale>
<asrwt>0</asrwt>
<pdfrwt beam="1">  1        4 0.39624979E-02 0.20033044E+02</pdfrwt>
<pdfrwt beam="2">  1       -4 0.59929154E-03 0.20033044E+02</pdfrwt>
<totfact> 0.12432188E+06</totfact>
</mgrwt>
</event>
<event>
 5    1  0.1154861E-006  0.2000036E+02  0.7818608E-02  0.1745321E+00
         -4   -1    0    0    0  501 -0.00000000000E+00  0.00000000000E+00  0.76391682687E+01  0.77700252148E+01  0.14200000000E+01 0.  1.
          4   -1    0    0  501    0  0.00000000000E+00 -0.00000000000E+00 -0.12809312624E+02  0.12887780643E+02  0.14200000000E+01 0. -1.
       1023    2    1    2    0    0  0.00000000000E+00  0.00000000000E+00 -0.51701443550E+01  0.20657805857E+02  0.20000363751E+02 0.  0.
        -11    1    3    3    0    0 -0.41306951683E+01  0.91071929275E+01 -0.25908869882E+01  0.10330358234E+02  0.51100000000E-03 0.  1.
         11    1    3    3    0    0  0.41306951683E+01 -0.91071929275E+01 -0.25792573668E+01  0.10327447624E+02  0.51100000000E-03 0. -1.
<mgrwt>
<rscale>  0 0.20000364E+02</rscale>
<asrwt>0</asrwt>
<pdfrwt beam="2">  1        4 0.19867654E-02 0.20000364E+02</pdfrwt>
<pdfrwt beam="1">  1       -4 0.11913586E-02 0.20000364E+02</pdfrwt>
<totfact> 0.12974510E+06</totfact>
</mgrwt>
</event>
<event>
 5    1  0.1154861E-006  0.2000271E+02  0.7818608E-02  0.1745274E+00
         -4   -1    0    0    0  501 -0.00000000000E+00  0.00000000000E+00  0.13801699415E+02  0.13874556091E+02  0.14200000000E+01 0. -1.
          4   -1    0    0  501    0  0.00000000000E+00 -0.00000000000E+00 -0.70848792426E+01  0.72257811953E+01  0.14200000000E+01 0.  1.
       1023    2    1    2    0    0  0.00000000000E+00  0.00000000000E+00  0.67168201722E+01  0.21100337287E+02  0.20002713826E+02 0.  0.
        -11    1    3    3    0    0 -0.88699302748E+01  0.46197182078E+01  0.34621982833E+01  0.10583207293E+02  0.51100000000E-03 0. -1.
         11    1    3    3    0    0  0.88699302748E+01 -0.46197182078E+01  0.32546218889E+01  0.10517129993E+02  0.51100000000E-03 0.  1.
<mgrwt>
<rscale>  0 0.20002714E+02</rscale>
<asrwt>0</asrwt>
<pdfrwt beam="2">  1        4 0.11064244E-02 0.20002714E+02</pdfrwt>
<pdfrwt beam="1">  1       -4 0.21397814E-02 0.20002714E+02</pdfrwt>
<totfact> 0.12945249E+06</totfact>
</mgrwt>
</event>
<event>
 5    1  0.1154861E-006  0.2000971E+02  0.7818608E-02  0.1745135E+00
          4   -1    0    0  501    0  0.00000000000E+00  0.00000000000E+00  0.65916497999E+01  0.67428663849E+01  0.14200000000E+01 0. -1.
         -4   -1    0    0    0  501 -0.00000000000E+00 -0.00000000000E+00 -0.14827718496E+02  0.14895557586E+02  0.14200000000E+01 0.  1.
       1023    2    1    2    0    0  0.00000000000E+00  0.00000000000E+00 -0.82360686961E+01  0.21638423971E+02  0.20009711751E+02 0.  0.
        -11    1    3    3    0    0  0.66053272466E+01 -0.75125657960E+01 -0.42994639948E+01  0.10888268172E+02  0.51100000000E-03 0. -1.
         11    1    3    3    0    0 -0.66053272466E+01  0.75125657960E+01 -0.39366047013E+01  0.10750155799E+02  0.51100000000E-03 0.  1.
<mgrwt>
<rscale>  0 0.20009712E+02</rscale>
<asrwt>0</asrwt>
<pdfrwt beam="1">  1        4 0.10309504E-02 0.20009712E+02</pdfrwt>
<pdfrwt beam="2">  1       -4 0.22980379E-02 0.20009712E+02</pdfrwt>
<totfact> 0.12904488E+06</totfact>
</mgrwt>
</event>
<event>
 5    1  0.1154861E-006  0.2000052E+02  0.7818608E-02  0.1745318E+00
         -4   -1    0    0    0  501 -0.00000000000E+00  0.00000000000E+00  0.10809285478E+02  0.10902158160E+02  0.14200000000E+01 0.  1.
          4   -1    0    0  501    0  0.00000000000E+00 -0.00000000000E+00 -0.90638197202E+01  0.91743788847E+01  0.14200000000E+01 0. -1.
       1023    2    1    2    0    0  0.00000000000E+00  0.00000000000E+00  0.17454657581E+01  0.20076537045E+02  0.20000517219E+02 0.  0.
        -11    1    3    3    0    0  0.17690153213E+01  0.98425301868E+01  0.89168068259E+00  0.10039915856E+02  0.51100000000E-03 0. -1.
         11    1    3    3    0    0 -0.17690153213E+01 -0.98425301868E+01  0.85378507555E+00  0.10036621190E+02  0.51100000000E-03 0.  1.
<mgrwt>
<rscale>  0 0.20000517E+02</rscale>
<asrwt>0</asrwt>
<pdfrwt beam="2">  1        4 0.14100824E-02 0.20000517E+02</pdfrwt>
<pdfrwt beam="1">  1       -4 0.16786156E-02 0.20000517E+02</pdfrwt>
<totfact> 0.13008817E+06</totfact>
</mgrwt>
</event>
<event>
 4    1  0.1154861E-006  0.2002925E+02  0.7818608E-02  0.1744747E+00
          4   -1    0    0  501    0  0.00000000000E+00  0.00000000000E+00  0.11470796923E+02  0.11558355508E+02  0.14200000000E+01 0.  1.
         -4   -1    0    0    0  501 -0.00000000000E+00 -0.00000000000E+00 -0.85638191774E+01  0.86807487524E+01  0.14200000000E+01 0. -1.
        -11    1    1    2    0    0 -0.81681245259E+01 -0.57717160950E+01  0.19704546984E+01  0.10193804831E+02  0.51100000000E-03 0.  1.
         11    1    1    2    0    0  0.81681245259E+01  0.57717160950E+01  0.93652304746E+00  0.10045299430E+02  0.51100000000E-03 0. -1.
<mgrwt>
<rscale>  0 0.20029249E+02</rscale>
<asrwt>0</asrwt>
<pdfrwt beam="1">  1        4 0.17804678E-02 0.20029249E+02</pdfrwt>
<pdfrwt beam="2">  1       -4 0.13332405E-02 0.20029249E+02</pdfrwt>
<totfact> 0.12961087E+06</totfact>
</mgrwt>
</event>
<event>
 5    1  0.1154861E-006  0.2000309E+02  0.7818608E-02  0.1745267E+00
          4   -1    0    0  501    0  0.00000000000E+00  0.00000000000E+00  0.10714554302E+02  0.10808241018E+02  0.14200000000E+01 0. -1.
         -4   -1    0    0    0  501 -0.00000000000E+00 -0.00000000000E+00 -0.91466342503E+01  0.92562043035E+01  0.14200000000E+01 0.  1.
       1023    2    1    2    0    0  0.00000000000E+00  0.00000000000E+00  0.15679200522E+01  0.20064445321E+02  0.20003089581E+02 0.  0.
        -11    1    3    3    0    0  0.15164128360E+01  0.98851537843E+01  0.66060027486E+00  0.10022582811E+02  0.51100000000E-03 0. -1.
         11    1    3    3    0    0 -0.15164128360E+01 -0.98851537843E+01  0.90731977730E+00  0.10041862510E+02  0.51100000000E-03 0.  1.
<mgrwt>
<rscale>  0 0.20003090E+02</rscale>
<asrwt>0</asrwt>
<pdfrwt beam="1">  1        4 0.16640281E-02 0.20003090E+02</pdfrwt>
<pdfrwt beam="2">  1       -4 0.14228096E-02 0.20003090E+02</pdfrwt>
<totfact> 0.13006118E+06</totfact>
</mgrwt>
</event>
<event>
 5    1  0.1189845E-006  0.2000139E+02  0.7818608E-02  0.1745301E+00
          4   -1    0    0  501    0  0.00000000000E+00  0.00000000000E+00  0.10769276179E+02  0.10862490940E+02  0.14200000000E+01 0. -1.
         -4   -1    0    0    0  501 -0.00000000000E+00 -0.00000000000E+00 -0.90984197793E+01  0.92085635405E+01  0.14200000000E+01 0.  1.
       1023    2    1    2    0    0  0.00000000000E+00  0.00000000000E+00  0.16708564000E+01  0.20071054481E+02  0.20001386623E+02 0.  0.
        -11    1    3    3    0    0  0.81233562503E+00  0.99672977706E+01  0.75175649063E+00  0.10028561816E+02  0.51100000000E-03 0. -1.
         11    1    3    3    0    0 -0.81233562503E+00 -0.99672977706E+01  0.91909990935E+00  0.10042492665E+02  0.51100000000E-03 0.  1.
<mgrwt>
<rscale>  0 0.20001387E+02</rscale>
<asrwt>0</asrwt>
<pdfrwt beam="1">  1        4 0.16724547E-02 0.20001387E+02</pdfrwt>
<pdfrwt beam="2">  1       -4 0.14153999E-02 0.20001387E+02</pdfrwt>
<totfact> 0.13007987E+06</totfact>
</mgrwt>
</event>
<event>
 5    1  0.1194487E-006  0.2000113E+02  0.7818608E-02  0.1745306E+00
          4   -1    0    0  501    0  0.00000000000E+00  0.00000000000E+00  0.12119567696E+02  0.12202471928E+02  0.14200000000E+01 0. -1.
         -4   -1    0    0    0  501 -0.00000000000E+00 -0.00000000000E+00 -0.80788862609E+01  0.82027314485E+01  0.14200000000E+01 0.  1.
       1023    2    1    2    0    0  0.00000000000E+00  0.00000000000E+00  0.40406814355E+01  0.20405203376E+02  0.20001130427E+02 0.  0.
        -11    1    3    3    0    0 -0.40394769151E+01  0.91483164095E+01  0.19720833701E+01  0.10193045666E+02  0.51100000000E-03 0.  1.
         11    1    3    3    0    0  0.40394769151E+01 -0.91483164095E+01  0.20685980654E+01  0.10212157710E+02  0.51100000000E-03 0. -1.
<mgrwt>
<rscale>  0 0.20001130E+02</rscale>
<asrwt>0</asrwt>
<pdfrwt beam="1">  1        4 0.18804527E-02 0.20001130E+02</pdfrwt>
<pdfrwt beam="2">  1       -4 0.12588094E-02 0.20001130E+02</pdfrwt>
<totfact> 0.12988442E+06</totfact>
</mgrwt>
</event>
<event>
 5    1  0.1216020E-006  0.2000116E+02  0.7818608E-02  0.1745305E+00
          4   -1    0    0  501    0  0.00000000000E+00  0.00000000000E+00  0.16397087777E+02  0.16458459453E+02  0.14200000000E+01 0. -1.
         -4   -1    0    0    0  501 -0.00000000000E+00 -0.00000000000E+00 -0.59427832285E+01  0.61100795823E+01  0.14200000000E+01 0.  1.
       1023    2    1    2    0    0  0.00000000000E+00  0.00000000000E+00  0.10454304549E+02  0.22568539035E+02  0.20001161731E+02 0.  0.
        -11    1    3    3    0    0  0.26642220603E+01  0.96391648810E+01  0.52201419449E+01  0.11281022160E+02  0.51100000000E-03 0. -1.
         11    1    3    3    0    0 -0.26642220603E+01 -0.96391648810E+01  0.52341626038E+01  0.11287516875E+02  0.51100000000E-03 0.  1.
<mgrwt>
<rscale>  0 0.20001162E+02</rscale>
<asrwt>0</asrwt>
<pdfrwt beam="1">  1        4 0.25402187E-02 0.20001162E+02</pdfrwt>
<pdfrwt beam="2">  1       -4 0.93186420E-03 0.20001162E+02</pdfrwt>
<totfact> 0.12861826E+06</totfact>
</mgrwt>
</event>
<event>
 5    1  0.1154861E-006  0.2000047E+02  0.7818608E-02  0.1745319E+00
         -4   -1    0    0    0  501 -0.00000000000E+00  0.00000000000E+00  0.54858527638E+00  0.15222830898E+01  0.14200000000E+01 0.  1.
          4   -1    0    0  501    0  0.00000000000E+00 -0.00000000000E+00 -0.95600969143E+02  0.95611514479E+02  0.14200000000E+01 0. -1.
       1023    2    1    2    0    0  0.00000000000E+00  0.00000000000E+00 -0.95052383866E+02  0.97133797569E+02  0.20000473782E+02 0.  0.
        -11    1    3    3    0    0 -0.73112175108E+01 -0.68227977933E+01 -0.47605459920E+02  0.48644468192E+02  0.51100000000E-03 0. -1.
         11    1    3    3    0    0  0.73112175108E+01  0.68227977933E+01 -0.47446923947E+02  0.48489329377E+02  0.51100000000E-03 0.  1.
<mgrwt>
<rscale>  0 0.20000474E+02</rscale>
<asrwt>0</asrwt>
<pdfrwt beam="2">  1        4 0.14783545E-01 0.20000474E+02</pdfrwt>
<pdfrwt beam="1">  1       -4 0.16010882E-03 0.20000474E+02</pdfrwt>
<totfact> 0.98831711E+05</totfact>
</mgrwt>
</event>
<event>
 5    1  0.1154861E-006  0.2000100E+02  0.7818608E-02  0.1745308E+00
          4   -1    0    0  501    0  0.00000000000E+00  0.00000000000E+00  0.56250710801E+02  0.56268631276E+02  0.14200000000E+01 0. -1.
         -4   -1    0    0    0  501 -0.00000000000E+00 -0.00000000000E+00 -0.14732122909E+01  0.20461560190E+01  0.14200000000E+01 0.  1.
       1023    2    1    2    0    0  0.00000000000E+00  0.00000000000E+00  0.54777498510E+02  0.58314787295E+02  0.20001001829E+02 0.  0.
        -11    1    3    3    0    0 -0.38448952394E+01 -0.92314334290E+01  0.27137335730E+02  0.28921230495E+02  0.51100000000E-03 0. -1.
         11    1    3    3    0    0  0.38448952394E+01  0.92314334290E+01  0.27640162780E+02  0.29393556799E+02  0.51100000000E-03 0.  1.
<mgrwt>
<rscale>  0 0.20001002E+02</rscale>
<asrwt>0</asrwt>
<pdfrwt beam="1">  1        4 0.86994062E-02 0.20001002E+02</pdfrwt>
<pdfrwt beam="2">  1       -4 0.27209915E-03 0.20001002E+02</pdfrwt>
<totfact> 0.11182842E+06</totfact>
</mgrwt>
</event>
<event>
 5    1  0.1154861E-006  0.2000010E+02  0.7818608E-02  0.1745326E+00
          4   -1    0    0  501    0  0.00000000000E+00  0.00000000000E+00  0.37290467110E+01  0.39902618176E+01  0.14200000000E+01 0.  1.
         -4   -1    0    0    0  501 -0.00000000000E+00 -0.00000000000E+00 -0.25627770746E+02  0.25667080734E+02  0.14200000000E+01 0. -1.
       1023    2    1    2    0    0  0.00000000000E+00  0.00000000000E+00 -0.21898724035E+02  0.29657342552E+02  0.20000096321E+02 0.  0.
        -11    1    3    3    0    0  0.78325847248E+01  0.62169884266E+01 -0.10986710916E+02  0.14856249378E+02  0.51100000000E-03 0. -1.
         11    1    3    3    0    0 -0.78325847248E+01 -0.62169884266E+01 -0.10912013120E+02  0.14801093174E+02  0.51100000000E-03 0.  1.
<mgrwt>
<rscale>  0 0.20000096E+02</rscale>
<asrwt>0</asrwt>
<pdfrwt beam="1">  1        4 0.59681683E-03 0.20000096E+02</pdfrwt>
<pdfrwt beam="2">  1       -4 0.39658512E-02 0.20000096E+02</pdfrwt>
<totfact> 0.12473554E+06</totfact>
</mgrwt>
</event>
<event>
 5    1  0.1154861E-006  0.2000031E+02  0.7818608E-02  0.1745322E+00
          4   -1    0    0  501    0  0.00000000000E+00  0.00000000000E+00  0.23585051466E+01  0.27529886535E+01  0.14200000000E+01 0.  1.
         -4   -1    0    0    0  501 -0.00000000000E+00 -0.00000000000E+00 -0.38720212996E+02  0.38746242327E+02  0.14200000000E+01 0. -1.
       1023    2    1    2    0    0  0.00000000000E+00  0.00000000000E+00 -0.36361707850E+02  0.41499230981E+02  0.20000309354E+02 0.  0.
        -11    1    3    3    0    0 -0.58933514169E+01 -0.80789680415E+01 -0.18093367621E+02  0.20672959818E+02  0.51100000000E-03 0. -1.
         11    1    3    3    0    0  0.58933514169E+01  0.80789680415E+01 -0.18268340229E+02  0.20826271162E+02  0.51100000000E-03 0.  1.
<mgrwt>
<rscale>  0 0.20000309E+02</rscale>
<asrwt>0</asrwt>
<pdfrwt beam="1">  1        4 0.39519411E-03 0.20000309E+02</pdfrwt>
<pdfrwt beam="2">  1       -4 0.59893026E-02 0.20000309E+02</pdfrwt>
<totfact> 0.11893023E+06</totfact>
</mgrwt>
</event>
<event>
 5    1  0.1154861E-006  0.2000039E+02  0.7818608E-02  0.1745320E+00
         -4   -1    0    0    0  501 -0.00000000000E+00  0.00000000000E+00  0.32790614909E+02  0.32821347110E+02  0.14200000000E+01 0.  1.
          4   -1    0    0  501    0  0.00000000000E+00 -0.00000000000E+00 -0.28504776090E+01  0.31845914337E+01  0.14200000000E+01 0. -1.
       1023    2    1    2    0    0  0.00000000000E+00  0.00000000000E+00  0.29940137300E+02  0.36005938543E+02  0.20000394718E+02 0.  0.
        -11    1    3    3    0    0 -0.33398770341E+01  0.94259721206E+01  0.14996645077E+02  0.18025068457E+02  0.51100000000E-03 0.  1.
         11    1    3    3    0    0  0.33398770341E+01 -0.94259721206E+01  0.14943492222E+02  0.17980870087E+02  0.51100000000E-03 0. -1.
<mgrwt>
<rscale>  0 0.20000395E+02</rscale>
<asrwt>0</asrwt>
<pdfrwt beam="2">  1        4 0.46660012E-03 0.20000395E+02</pdfrwt>
<pdfrwt beam="1">  1       -4 0.50727748E-02 0.20000395E+02</pdfrwt>
<totfact> 0.12152235E+06</totfact>
</mgrwt>
</event>
<event>
 5    1  0.1154861E-006  0.2000199E+02  0.7818608E-02  0.1745289E+00
          4   -1    0    0  501    0  0.00000000000E+00  0.00000000000E+00  0.10485341228E+03  0.10486302716E+03  0.14200000000E+01 0.  1.
         -4   -1    0    0    0  501 -0.00000000000E+00 -0.00000000000E+00 -0.41033807315E+00  0.14780992302E+01  0.14200000000E+01 0. -1.
       1023    2    1    2    0    0  0.00000000000E+00  0.00000000000E+00  0.10444307420E+03  0.10634112639E+03  0.20001985246E+02 0.  0.
        -11    1    3    3    0    0 -0.56754697387E+01 -0.82345834325E+01  0.52344177255E+02  0.53291014381E+02  0.51100000000E-03 0.  1.
         11    1    3    3    0    0  0.56754697387E+01  0.82345834325E+01  0.52098896949E+02  0.53050112014E+02  0.51100000000E-03 0. -1.
<mgrwt>
<rscale>  0 0.20001985E+02</rscale>
<asrwt>0</asrwt>
<pdfrwt beam="1">  1        4 0.16214170E-01 0.20001985E+02</pdfrwt>
<pdfrwt beam="2">  1       -4 0.14600401E-03 0.20001985E+02</pdfrwt>
<totfact> 0.96223808E+05</totfact>
</mgrwt>
</event>
<event>
 5    1  0.1154861E-006  0.2000374E+02  0.7818608E-02  0.1745254E+00
         -4   -1    0    0    0  501 -0.00000000000E+00  0.00000000000E+00  0.23032579142E+01  0.27058080160E+01  0.14200000000E+01 0.  1.
          4   -1    0    0  501    0  0.00000000000E+00 -0.00000000000E+00 -0.39526233052E+02  0.39551731938E+02  0.14200000000E+01 0. -1.
       1023    2    1    2    0    0  0.00000000000E+00  0.00000000000E+00 -0.37222975138E+02  0.42257539954E+02  0.20003744770E+02 0.  0.
        -11    1    3    3    0    0  0.83299552745E+01  0.55339195261E+01 -0.18277269549E+02  0.20834370704E+02  0.51100000000E-03 0. -1.
         11    1    3    3    0    0 -0.83299552745E+01 -0.55339195261E+01 -0.18945705589E+02  0.21423169250E+02  0.51100000000E-03 0.  1.
<mgrwt>
<rscale>  0 0.20003745E+02</rscale>
<asrwt>0</asrwt>
<pdfrwt beam="2">  1        4 0.61138853E-02 0.20003745E+02</pdfrwt>
<pdfrwt beam="1">  1       -4 0.38727424E-03 0.20003745E+02</pdfrwt>
<totfact> 0.11854320E+06</totfact>
</mgrwt>
</event>
<event>
 5    1  0.1163446E-006  0.2000318E+02  0.7818608E-02  0.1745265E+00
          4   -1    0    0  501    0  0.00000000000E+00  0.00000000000E+00  0.19567477164E+01  0.24176975877E+01  0.14200000000E+01 0. -1.
         -4   -1    0    0    0  501 -0.00000000000E+00 -0.00000000000E+00 -0.45261346501E+02  0.45283616100E+02  0.14200000000E+01 0.  1.
       1023    2    1    2    0    0  0.00000000000E+00  0.00000000000E+00 -0.43304598785E+02  0.47701313688E+02  0.20003176039E+02 0.  0.
        -11    1    3    3    0    0 -0.16182871037E+01  0.98683484385E+01 -0.22055647148E+02  0.24216827319E+02  0.51100000000E-03 0.  1.
         11    1    3    3    0    0  0.16182871037E+01 -0.98683484385E+01 -0.21248951637E+02  0.23484486369E+02  0.51100000000E-03 0. -1.
<mgrwt>
<rscale>  0 0.20003176E+02</rscale>
<asrwt>0</asrwt>
<pdfrwt beam="1">  1        4 0.33820887E-03 0.20003176E+02</pdfrwt>
<pdfrwt beam="2">  1       -4 0.70004541E-02 0.20003176E+02</pdfrwt>
<totfact> 0.11614267E+06</totfact>
</mgrwt>
</event>
<event>
 5    1  0.1154861E-006  0.2000018E+02  0.7818608E-02  0.1745325E+00
          4   -1    0    0  501    0  0.00000000000E+00  0.00000000000E+00  0.79147806332E+02  0.79160543500E+02  0.14200000000E+01 0.  1.
         -4   -1    0    0    0  501 -0.00000000000E+00 -0.00000000000E+00 -0.84752694268E+00  0.16536934173E+01  0.14200000000E+01 0. -1.
       1023    2    1    2    0    0  0.00000000000E+00  0.00000000000E+00  0.78300279390E+02  0.80814236917E+02  0.20000178400E+02 0.  0.
        -11    1    3    3    0    0  0.61748144236E+01 -0.78659333573E+01  0.39244297150E+02  0.40498346878E+02  0.51100000000E-03 0.  1.
         11    1    3    3    0    0 -0.61748144236E+01  0.78659333573E+01  0.39055982239E+02  0.40315890039E+02  0.51100000000E-03 0. -1.
<mgrwt>
<rscale>  0 0.20000178E+02</rscale>
<asrwt>0</asrwt>
<pdfrwt beam="1">  1        4 0.12239581E-01 0.20000178E+02</pdfrwt>
<pdfrwt beam="2">  1       -4 0.19338131E-03 0.20000178E+02</pdfrwt>
<totfact> 0.10384441E+06</totfact>
</mgrwt>
</event>
<event>
 5    1  0.1154861E-006  0.2000084E+02  0.7818608E-02  0.1745311E+00
          4   -1    0    0  501    0  0.00000000000E+00  0.00000000000E+00  0.59736889996E+02  0.59753764956E+02  0.14200000000E+01 0. -1.
         -4   -1    0    0    0  501 -0.00000000000E+00 -0.00000000000E+00 -0.13527683719E+01  0.19612195869E+01  0.14200000000E+01 0.  1.
       1023    2    1    2    0    0  0.00000000000E+00  0.00000000000E+00  0.58384121624E+02  0.61714984543E+02  0.20000841465E+02 0.  0.
        -11    1    3    3    0    0 -0.88227885325E+01  0.47078619450E+01  0.29356873917E+02  0.31013410132E+02  0.51100000000E-03 0.  1.
         11    1    3    3    0    0  0.88227885325E+01 -0.47078619450E+01  0.29027247707E+02  0.30701574410E+02  0.51100000000E-03 0. -1.
<mgrwt>
<rscale>  0 0.20000841E+02</rscale>
<asrwt>0</asrwt>
<pdfrwt beam="1">  1        4 0.92383913E-02 0.20000841E+02</pdfrwt>
<pdfrwt beam="2">  1       -4 0.25622027E-03 0.20000841E+02</pdfrwt>
<totfact> 0.11052563E+06</totfact>
</mgrwt>
</event>
<event>
 5    1  0.1154861E-006  0.2000011E+02  0.7818608E-02  0.1745326E+00
          4   -1    0    0  501    0  0.00000000000E+00  0.00000000000E+00  0.76862934851E+00  0.16146798678E+01  0.14200000000E+01 0. -1.
         -4   -1    0    0    0  501 -0.00000000000E+00 -0.00000000000E+00 -0.83063561821E+02  0.83075698627E+02  0.14200000000E+01 0.  1.
       1023    2    1    2    0    0  0.00000000000E+00  0.00000000000E+00 -0.82294932473E+02  0.84690378495E+02  0.20000107474E+02 0.  0.
        -11    1    3    3    0    0 -0.95201196540E+01 -0.30607651087E+01 -0.41192519775E+02  0.42388968458E+02  0.51100000000E-03 0.  1.
         11    1    3    3    0    0  0.95201196540E+01  0.30607651087E+01 -0.41102412698E+02  0.42301410037E+02  0.51100000000E-03 0. -1.
<mgrwt>
<rscale>  0 0.20000107E+02</rscale>
<asrwt>0</asrwt>
<pdfrwt beam="1">  1        4 0.18426514E-03 0.20000107E+02</pdfrwt>
<pdfrwt beam="2">  1       -4 0.12845019E-01 0.20000107E+02</pdfrwt>
<totfact> 0.10260358E+06</totfact>
</mgrwt>
</event>
<event>
 5    1  0.1164621E-006  0.2000072E+02  0.7818608E-02  0.1745314E+00
          4   -1    0    0  501    0  0.00000000000E+00  0.00000000000E+00  0.40440500074E+01  0.42861101785E+01  0.14200000000E+01 0. -1.
         -4   -1    0    0    0  501 -0.00000000000E+00 -0.00000000000E+00 -0.23746977633E+02  0.23789395678E+02  0.14200000000E+01 0.  1.
       1023    2    1    2    0    0  0.00000000000E+00  0.00000000000E+00 -0.19702927626E+02  0.28075505856E+02  0.20000716789E+02 0.  0.
        -11    1    3    3    0    0 -0.93254991065E+01 -0.36113584221E+01 -0.98767509007E+01  0.14055498990E+02  0.51100000000E-03 0. -1.
         11    1    3    3    0    0  0.93254991065E+01  0.36113584221E+01 -0.98261767248E+01  0.14020006866E+02  0.51100000000E-03 0.  1.
<mgrwt>
<rscale>  0 0.20000717E+02</rscale>
<asrwt>0</asrwt>
<pdfrwt beam="1">  1        4 0.64404449E-03 0.20000717E+02</pdfrwt>
<pdfrwt beam="2">  1       -4 0.36752640E-02 0.20000717E+02</pdfrwt>
<totfact> 0.12556590E+06</totfact>
</mgrwt>
</event>
<event>
 5    1  0.1154861E-006  0.2000160E+02  0.7818608E-02  0.1745296E+00
          4   -1    0    0  501    0  0.00000000000E+00  0.00000000000E+00  0.24906142636E+01  0.28669773996E+01  0.14200000000E+01 0.  1.
         -4   -1    0    0    0  501 -0.00000000000E+00 -0.00000000000E+00 -0.36945226378E+02  0.36972505354E+02  0.14200000000E+01 0. -1.
       1023    2    1    2    0    0  0.00000000000E+00  0.00000000000E+00 -0.34454612115E+02  0.39839482754E+02  0.20001602188E+02 0.  0.
        -11    1    3    3    0    0 -0.70683887898E+01  0.70748470342E+01 -0.17269163621E+02  0.19955941298E+02  0.51100000000E-03 0. -1.
         11    1    3    3    0    0  0.70683887898E+01 -0.70748470342E+01 -0.17185448494E+02  0.19883541456E+02  0.51100000000E-03 0.  1.
<mgrwt>
<rscale>  0 0.20001602E+02</rscale>
<asrwt>0</asrwt>
<pdfrwt beam="1">  1        4 0.41422085E-03 0.20001602E+02</pdfrwt>
<pdfrwt beam="2">  1       -4 0.57149300E-02 0.20001602E+02</pdfrwt>
<totfact> 0.11968146E+06</totfact>
</mgrwt>
</event>
<event>
 5    1  0.1154861E-006  0.2000055E+02  0.7818608E-02  0.1745317E+00
          4   -1    0    0  501    0  0.00000000000E+00  0.00000000000E+00  0.58101805572E+02  0.58119155283E+02  0.14200000000E+01 0.  1.
         -4   -1    0    0    0  501 -0.00000000000E+00 -0.00000000000E+00 -0.14076502600E+01  0.19994697433E+01  0.14200000000E+01 0. -1.
       1023    2    1    2    0    0  0.00000000000E+00  0.00000000000E+00  0.56694155312E+02  0.60118625026E+02  0.20000545703E+02 0.  0.
        -11    1    3    3    0    0  0.83888306767E+01  0.54436110711E+01  0.28321005936E+02  0.30034725887E+02  0.51100000000E-03 0.  1.
         11    1    3    3    0    0 -0.83888306767E+01 -0.54436110711E+01  0.28373149376E+02  0.30083899139E+02  0.51100000000E-03 0. -1.
<mgrwt>
<rscale>  0 0.20000546E+02</rscale>
<asrwt>0</asrwt>
<pdfrwt beam="1">  1        4 0.89855969E-02 0.20000546E+02</pdfrwt>
<pdfrwt beam="2">  1       -4 0.26342079E-03 0.20000546E+02</pdfrwt>
<totfact> 0.11113693E+06</totfact>
</mgrwt>
</event>
<event>
 5    1  0.1154861E-006  0.2000040E+02  0.7818608E-02  0.1745320E+00
          4   -1    0    0  501    0  0.00000000000E+00  0.00000000000E+00  0.24901451046E+00  0.14416685564E+01  0.14200000000E+01 0. -1.
         -4   -1    0    0    0  501 -0.00000000000E+00 -0.00000000000E+00 -0.11710007981E+03  0.11710868923E+03  0.14200000000E+01 0.  1.
       1023    2    1    2    0    0  0.00000000000E+00  0.00000000000E+00 -0.11685106530E+03  0.11855035778E+03  0.20000396695E+02 0.  0.
        -11    1    3    3    0    0  0.38154323433E+01  0.92437086165E+01 -0.58527128406E+02  0.59375318380E+02  0.51100000000E-03 0. -1.
         11    1    3    3    0    0 -0.38154323433E+01 -0.92437086165E+01 -0.58323936898E+02  0.59175039404E+02  0.51100000000E-03 0.  1.
<mgrwt>
<rscale>  0 0.20000397E+02</rscale>
<asrwt>0</asrwt>
<pdfrwt beam="1">  1        4 0.13071490E-03 0.20000397E+02</pdfrwt>
<pdfrwt beam="2">  1       -4 0.18107789E-01 0.20000397E+02</pdfrwt>
<totfact> 0.93021055E+05</totfact>
</mgrwt>
</event>
<event>
 5    1  0.1154861E-006  0.2000032E+02  0.7818608E-02  0.1745322E+00
         -4   -1    0    0    0  501 -0.00000000000E+00  0.00000000000E+00  0.13169718834E+02  0.13246052022E+02  0.14200000000E+01 0. -1.
          4   -1    0    0  501    0  0.00000000000E+00 -0.00000000000E+00 -0.74276923817E+01  0.75622096054E+01  0.14200000000E+01 0.  1.
       1023    2    1    2    0    0  0.00000000000E+00  0.00000000000E+00  0.57420264527E+01  0.20808261628E+02  0.20000322102E+02 0.  0.
        -11    1    3    3    0    0  0.75475814310E+01  0.65601427927E+01  0.28273430247E+01  0.10392080050E+02  0.51100000000E-03 0. -1.
         11    1    3    3    0    0 -0.75475814310E+01 -0.65601427927E+01  0.29146834280E+01  0.10416181578E+02  0.51100000000E-03 0.  1.
<mgrwt>
<rscale>  0 0.20000322E+02</rscale>
<asrwt>0</asrwt>
<pdfrwt beam="2">  1        4 0.11589412E-02 0.20000322E+02</pdfrwt>
<pdfrwt beam="1">  1       -4 0.20423298E-02 0.20000322E+02</pdfrwt>
<totfact> 0.12965661E+06</totfact>
</mgrwt>
</event>
<event>
 5    1  0.1166732E-006  0.2000070E+02  0.7818608E-02  0.1745314E+00
          4   -1    0    0  501    0  0.00000000000E+00  0.00000000000E+00  0.64511283173E+01  0.66055625473E+01  0.14200000000E+01 0. -1.
         -4   -1    0    0    0  501 -0.00000000000E+00 -0.00000000000E+00 -0.15130820876E+02  0.15197307010E+02  0.14200000000E+01 0.  1.
       1023    2    1    2    0    0  0.00000000000E+00  0.00000000000E+00 -0.86796925584E+01  0.21802869558E+02  0.20000701439E+02 0.  0.
        -11    1    3    3    0    0 -0.27955727094E+01  0.96016553538E+01 -0.43413661236E+01  0.10902039827E+02  0.51100000000E-03 0. -1.
         11    1    3    3    0    0  0.27955727094E+01 -0.96016553538E+01 -0.43383264348E+01  0.10900829731E+02  0.51100000000E-03 0.  1.
<mgrwt>
<rscale>  0 0.20000701E+02</rscale>
<asrwt>0</asrwt>
<pdfrwt beam="1">  1        4 0.10094752E-02 0.20000701E+02</pdfrwt>
<pdfrwt beam="2">  1       -4 0.23448125E-02 0.20000701E+02</pdfrwt>
<totfact> 0.12906762E+06</totfact>
</mgrwt>
</event>
<event>
 5    1  0.1154861E-006  0.2000029E+02  0.7818608E-02  0.1745322E+00
         -4   -1    0    0    0  501 -0.00000000000E+00  0.00000000000E+00  0.51308897467E+02  0.51328543319E+02  0.14200000000E+01 0. -1.
          4   -1    0    0  501    0  0.00000000000E+00 -0.00000000000E+00 -0.16676356376E+01  0.21902987513E+01  0.14200000000E+01 0.  1.
       1023    2    1    2    0    0  0.00000000000E+00  0.00000000000E+00  0.49641261829E+02  0.53518842071E+02  0.20000289512E+02 0.  0.
        -11    1    3    3    0    0 -0.66359732064E+01  0.74809053095E+01  0.24678776899E+02  0.26627844714E+02  0.51100000000E-03 0.  1.
         11    1    3    3    0    0  0.66359732064E+01 -0.74809053095E+01  0.24962484931E+02  0.26890997356E+02  0.51100000000E-03 0. -1.
<mgrwt>
<rscale>  0 0.20000290E+02</rscale>
<asrwt>0</asrwt>
<pdfrwt beam="2">  1        4 0.29827543E-03 0.20000290E+02</pdfrwt>
<pdfrwt beam="1">  1       -4 0.79353919E-02 0.20000290E+02</pdfrwt>
<totfact> 0.11374386E+06</totfact>
</mgrwt>
</event>
<event>
 4    1  0.1154861E-006  0.2013899E+02  0.7818608E-02  0.1742578E+00
         -4   -1    0    0    0  501 -0.00000000000E+00  0.00000000000E+00  0.32205155164E+02  0.32236445510E+02  0.14200000000E+01 0. -1.
          4   -1    0    0  501    0  0.00000000000E+00 -0.00000000000E+00 -0.29537006150E+01  0.32773079384E+01  0.14200000000E+01 0.  1.
        -11    1    1    2    0    0  0.15254519785E+01  0.99531256258E+01  0.14723259125E+02  0.17837210347E+02  0.51100000000E-03 0.  1.
         11    1    1    2    0    0 -0.15254519785E+01 -0.99531256258E+01  0.14528195424E+02  0.17676543101E+02  0.51100000000E-03 0. -1.
<mgrwt>
<rscale>  0 0.20138994E+02</rscale>
<asrwt>0</asrwt>
<pdfrwt beam="2">  1        4 0.48171531E-03 0.20138994E+02</pdfrwt>
<pdfrwt beam="1">  1       -4 0.49819390E-02 0.20138994E+02</pdfrwt>
<totfact> 0.12006813E+06</totfact>
</mgrwt>
</event>
<event>
 5    1  0.1154861E-006  0.2000705E+02  0.7818608E-02  0.1745188E+00
          4   -1    0    0  501    0  0.00000000000E+00  0.00000000000E+00  0.83689907979E+02  0.83701953965E+02  0.14200000000E+01 0. -1.
         -4   -1    0    0    0  501 -0.00000000000E+00 -0.00000000000E+00 -0.75765056056E+00  0.16094826411E+01  0.14200000000E+01 0.  1.
       1023    2    1    2    0    0  0.00000000000E+00  0.00000000000E+00  0.82932257418E+02  0.85311436606E+02  0.20007046140E+02 0.  0.
        -11    1    3    3    0    0 -0.39942267495E+00  0.99937253009E+01  0.40652711344E+02  0.41864985653E+02  0.51100000000E-03 0.  1.
         11    1    3    3    0    0  0.39942267495E+00 -0.99937253009E+01  0.42279546074E+02  0.43446450952E+02  0.51100000000E-03 0. -1.
<mgrwt>
<rscale>  0 0.20007046E+02</rscale>
<asrwt>0</asrwt>
<pdfrwt beam="1">  1        4 0.12941827E-01 0.20007046E+02</pdfrwt>
<pdfrwt beam="2">  1       -4 0.18301372E-03 0.20007046E+02</pdfrwt>
<totfact> 0.10233676E+06</totfact>
</mgrwt>
</event>
<event>
 5    1  0.1154861E-006  0.2000059E+02  0.7818608E-02  0.1745316E+00
         -4   -1    0    0    0  501 -0.00000000000E+00  0.00000000000E+00  0.96356262082E+01  0.97396967317E+01  0.14200000000E+01 0.  1.
          4   -1    0    0  501    0  0.00000000000E+00 -0.00000000000E+00 -0.10169355738E+02  0.10268018121E+02  0.14200000000E+01 0. -1.
       1023    2    1    2    0    0  0.00000000000E+00  0.00000000000E+00 -0.53372952997E+00  0.20007714853E+02  0.20000594651E+02 0.  0.
        -11    1    3    3    0    0  0.16738302844E+01 -0.98589733704E+01 -0.33676525561E+00  0.10005722105E+02  0.51100000000E-03 0. -1.
         11    1    3    3    0    0 -0.16738302844E+01  0.98589733704E+01 -0.19696427436E+00  0.10001992748E+02  0.51100000000E-03 0.  1.
<mgrwt>
<rscale>  0 0.20000595E+02</rscale>
<asrwt>0</asrwt>
<pdfrwt beam="2">  1        4 0.15801111E-02 0.20000595E+02</pdfrwt>
<pdfrwt beam="1">  1       -4 0.14979989E-02 0.20000595E+02</pdfrwt>
<totfact> 0.13012797E+06</totfact>
</mgrwt>
</event>
<event>
 5    1  0.1154861E-006  0.2000034E+02  0.7818608E-02  0.1745321E+00
          4   -1    0    0  501    0  0.00000000000E+00  0.00000000000E+00  0.64101263727E+00  0.15579785625E+01  0.14200000000E+01 0. -1.
         -4   -1    0    0    0  501 -0.00000000000E+00 -0.00000000000E+00 -0.90029029029E+02  0.90040226943E+02  0.14200000000E+01 0.  1.
       1023    2    1    2    0    0  0.00000000000E+00  0.00000000000E+00 -0.89388016392E+02  0.91598205505E+02  0.20000344430E+02 0.  0.
        -11    1    3    3    0    0 -0.36613302653E+01 -0.93058011974E+01 -0.44753517007E+02  0.45857175665E+02  0.51100000000E-03 0. -1.
         11    1    3    3    0    0  0.36613302653E+01  0.93058011974E+01 -0.44634499384E+02  0.45741029840E+02  0.51100000000E-03 0.  1.
<mgrwt>
<rscale>  0 0.20000344E+02</rscale>
<asrwt>0</asrwt>
<pdfrwt beam="1">  1        4 0.17001462E-03 0.20000344E+02</pdfrwt>
<pdfrwt beam="2">  1       -4 0.13922011E-01 0.20000344E+02</pdfrwt>
<totfact> 0.10046950E+06</totfact>
</mgrwt>
</event>
<event>
 5    1  0.1154861E-006  0.2000007E+02  0.7818608E-02  0.1745327E+00
         -4   -1    0    0    0  501 -0.00000000000E+00  0.00000000000E+00  0.31009293380E+01  0.34105956605E+01  0.14200000000E+01 0. -1.
          4   -1    0    0  501    0  0.00000000000E+00 -0.00000000000E+00 -0.30387965200E+02  0.30421124717E+02  0.14200000000E+01 0.  1.
       1023    2    1    2    0    0  0.00000000000E+00  0.00000000000E+00 -0.27287035862E+02  0.33831720377E+02  0.20000074438E+02 0.  0.
        -11    1    3    3    0    0 -0.87109043384E+01  0.49112390855E+01 -0.13601385392E+02  0.16881878112E+02  0.51100000000E-03 0. -1.
         11    1    3    3    0    0  0.87109043384E+01 -0.49112390855E+01 -0.13685650471E+02  0.16949842265E+02  0.51100000000E-03 0.  1.
<mgrwt>
<rscale>  0 0.20000074E+02</rscale>
<asrwt>0</asrwt>
<pdfrwt beam="2">  1        4 0.47014426E-02 0.20000074E+02</pdfrwt>
<pdfrwt beam="1">  1       -4 0.50343729E-03 0.20000074E+02</pdfrwt>
<totfact> 0.12259852E+06</totfact>
</mgrwt>
</event>
<event>
 5    1  0.1238936E-006  0.2000113E+02  0.7818608E-02  0.1745306E+00
         -4   -1    0    0    0  501 -0.00000000000E+00  0.00000000000E+00  0.12321418216E+02  0.12402973307E+02  0.14200000000E+01 0.  1.
          4   -1    0    0  501    0  0.00000000000E+00 -0.00000000000E+00 -0.79453843531E+01  0.80712782456E+01  0.14200000000E+01 0. -1.
       1023    2    1    2    0    0  0.00000000000E+00  0.00000000000E+00  0.43760338629E+01  0.20474251552E+02  0.20001132575E+02 0.  0.
        -11    1    3    3    0    0  0.98321740841E+01 -0.18261980477E+01  0.22580402654E+01  0.10252092110E+02  0.51100000000E-03 0. -1.
         11    1    3    3    0    0 -0.98321740841E+01  0.18261980477E+01  0.21179935975E+01  0.10222159443E+02  0.51100000000E-03 0.  1.
<mgrwt>
<rscale>  0 0.20001133E+02</rscale>
<asrwt>0</asrwt>
<pdfrwt beam="2">  1        4 0.12383244E-02 0.20001133E+02</pdfrwt>
<pdfrwt beam="1">  1       -4 0.19115604E-02 0.20001133E+02</pdfrwt>
<totfact> 0.12984346E+06</totfact>
</mgrwt>
</event>
<event>
 5    1  0.1154861E-006  0.2000125E+02  0.7818608E-02  0.1745303E+00
         -4   -1    0    0    0  501 -0.00000000000E+00  0.00000000000E+00  0.51681319734E+00  0.15111240455E+01  0.14200000000E+01 0. -1.
          4   -1    0    0  501    0  0.00000000000E+00 -0.00000000000E+00 -0.97632719033E+02  0.97643044943E+02  0.14200000000E+01 0.  1.
       1023    2    1    2    0    0  0.00000000000E+00  0.00000000000E+00 -0.97115905835E+02  0.99154168988E+02  0.20001251500E+02 0.  0.
        -11    1    3    3    0    0  0.99935124991E+01  0.36997424152E+00 -0.48195617624E+02  0.49222197548E+02  0.51100000000E-03 0.  1.
         11    1    3    3    0    0 -0.99935124991E+01 -0.36997424152E+00 -0.48920288211E+02  0.49931971441E+02  0.51100000000E-03 0. -1.
<mgrwt>
<rscale>  0 0.20001251E+02</rscale>
<asrwt>0</asrwt>
<pdfrwt beam="2">  1        4 0.15097691E-01 0.20001251E+02</pdfrwt>
<pdfrwt beam="1">  1       -4 0.15678955E-03 0.20001251E+02</pdfrwt>
<totfact> 0.98241752E+05</totfact>
</mgrwt>
</event>
<event>
 5    1  0.1154861E-006  0.2000134E+02  0.7818608E-02  0.1745301E+00
         -4   -1    0    0    0  501 -0.00000000000E+00  0.00000000000E+00  0.24593875964E+01  0.28398921369E+01  0.14200000000E+01 0.  1.
          4   -1    0    0  501    0  0.00000000000E+00 -0.00000000000E+00 -0.37351076052E+02  0.37378058834E+02  0.14200000000E+01 0. -1.
       1023    2    1    2    0    0  0.00000000000E+00  0.00000000000E+00 -0.34891688455E+02  0.40217950971E+02  0.20001341382E+02 0.  0.
        -11    1    3    3    0    0 -0.99924008757E+01  0.40072067345E+00 -0.17307091627E+02  0.19988598579E+02  0.51100000000E-03 0. -1.
         11    1    3    3    0    0  0.99924008757E+01 -0.40072067345E+00 -0.17584596828E+02  0.20229352392E+02  0.51100000000E-03 0.  1.
<mgrwt>
<rscale>  0 0.20001341E+02</rscale>
<asrwt>0</asrwt>
<pdfrwt beam="2">  1        4 0.57776642E-02 0.20001341E+02</pdfrwt>
<pdfrwt beam="1">  1       -4 0.40971253E-03 0.20001341E+02</pdfrwt>
<totfact> 0.11950855E+06</totfact>
</mgrwt>
</event>
<event>
 5    1  0.1154861E-006  0.2000045E+02  0.7818608E-02  0.1745319E+00
          4   -1    0    0  501    0  0.00000000000E+00  0.00000000000E+00  0.74948310805E+01  0.76281644532E+01  0.14200000000E+01 0.  1.
         -4   -1    0    0    0  501 -0.00000000000E+00 -0.00000000000E+00 -0.13053305694E+02  0.13130315668E+02  0.14200000000E+01 0. -1.
       1023    2    1    2    0    0  0.00000000000E+00  0.00000000000E+00 -0.55584746139E+01  0.20758480122E+02  0.20000446418E+02 0.  0.
        -11    1    3    3    0    0  0.76184191589E+01  0.64776901994E+01 -0.27162480090E+01  0.10362373488E+02  0.51100000000E-03 0.  1.
         11    1    3    3    0    0 -0.76184191589E+01 -0.64776901994E+01 -0.28422266050E+01  0.10396106633E+02  0.51100000000E-03 0. -1.
<mgrwt>
<rscale>  0 0.20000446E+02</rscale>
<asrwt>0</asrwt>
<pdfrwt beam="1">  1        4 0.11692312E-02 0.20000446E+02</pdfrwt>
<pdfrwt beam="2">  1       -4 0.20243811E-02 0.20000446E+02</pdfrwt>
<totfact> 0.12968447E+06</totfact>
</mgrwt>
</event>
<event>
 5    1  0.1165972E-006  0.2000072E+02  0.7818608E-02  0.1745314E+00
          4   -1    0    0  501    0  0.00000000000E+00  0.00000000000E+00  0.28627921611E+02  0.28663117343E+02  0.14200000000E+01 0.  1.
         -4   -1    0    0    0  501 -0.00000000000E+00 -0.00000000000E+00 -0.33100489614E+01  0.36017806883E+01  0.14200000000E+01 0. -1.
       1023    2    1    2    0    0  0.00000000000E+00  0.00000000000E+00  0.25317872650E+02  0.32264898031E+02  0.20000724222E+02 0.  0.
        -11    1    3    3    0    0 -0.97090363197E+01 -0.23950160875E+01  0.12536570236E+02  0.16036429835E+02  0.51100000000E-03 0. -1.
         11    1    3    3    0    0  0.97090363197E+01  0.23950160875E+01  0.12781302414E+02  0.16228468196E+02  0.51100000000E-03 0.  1.
<mgrwt>
<rscale>  0 0.20000724E+02</rscale>
<asrwt>0</asrwt>
<pdfrwt beam="1">  1        4 0.44294438E-02 0.20000724E+02</pdfrwt>
<pdfrwt beam="2">  1       -4 0.53438658E-03 0.20000724E+02</pdfrwt>
<totfact> 0.12338050E+06</totfact>
</mgrwt>
</event>
<event>
 5    1  0.1154861E-006  0.2000437E+02  0.7818608E-02  0.1745241E+00
         -4   -1    0    0    0  501 -0.00000000000E+00  0.00000000000E+00  0.67987747817E+00  0.15743676144E+01  0.14200000000E+01 0. -1.
          4   -1    0    0  501    0  0.00000000000E+00 -0.00000000000E+00 -0.87857775627E+02  0.87869250243E+02  0.14200000000E+01 0.  1.
       1023    2    1    2    0    0  0.00000000000E+00  0.00000000000E+00 -0.87177898149E+02  0.89443617857E+02  0.20004370763E+02 0.  0.
        -11    1    3    3    0    0 -0.96857766547E+01 -0.24935736678E+01 -0.44069121920E+02  0.45189818390E+02  0.51100000000E-03 0. -1.
         11    1    3    3    0    0  0.96857766547E+01  0.24935736678E+01 -0.43108776229E+02  0.44253799467E+02  0.51100000000E-03 0.  1.
<mgrwt>
<rscale>  0 0.20004371E+02</rscale>
<asrwt>0</asrwt>
<pdfrwt beam="2">  1        4 0.13586265E-01 0.20004371E+02</pdfrwt>
<pdfrwt beam="1">  1       -4 0.17428620E-03 0.20004371E+02</pdfrwt>
<totfact> 0.10108271E+06</totfact>
</mgrwt>
</event>
<event>
 5    1  0.1154861E-006  0.2000388E+02  0.7818608E-02  0.1745251E+00
          4   -1    0    0  501    0  0.00000000000E+00  0.00000000000E+00  0.78585107377E+00  0.16229485236E+01  0.14200000000E+01 0. -1.
         -4   -1    0    0    0  501 -0.00000000000E+00 -0.00000000000E+00 -0.82215765680E+02  0.82228027620E+02  0.14200000000E+01 0.  1.
       1023    2    1    2    0    0  0.00000000000E+00  0.00000000000E+00 -0.81429914606E+02  0.83850976144E+02  0.20003879812E+02 0.  0.
        -11    1    3    3    0    0 -0.19132010478E+01  0.98165124997E+01 -0.41220504164E+02  0.42416438083E+02  0.51100000000E-03 0. -1.
         11    1    3    3    0    0  0.19132010478E+01 -0.98165124997E+01 -0.40209410442E+02  0.41434538060E+02  0.51100000000E-03 0.  1.
<mgrwt>
<rscale>  0 0.20003880E+02</rscale>
<asrwt>0</asrwt>
<pdfrwt beam="1">  1        4 0.18623557E-03 0.20003880E+02</pdfrwt>
<pdfrwt beam="2">  1       -4 0.12713910E-01 0.20003880E+02</pdfrwt>
<totfact> 0.10283068E+06</totfact>
</mgrwt>
</event>
<event>
 4    1  0.1154861E-006  0.2006102E+02  0.7818608E-02  0.1744117E+00
          4   -1    0    0  501    0  0.00000000000E+00  0.00000000000E+00  0.24978445653E+02  0.25018775895E+02  0.14200000000E+01 0.  1.
         -4   -1    0    0    0  501 -0.00000000000E+00 -0.00000000000E+00 -0.38577113574E+01  0.41107586790E+01  0.14200000000E+01 0. -1.
        -11    1    1    2    0    0 -0.79391573465E+01 -0.61077084770E+01  0.11324272604E+02  0.15118646516E+02  0.51100000000E-03 0.  1.
         11    1    1    2    0    0  0.79391573465E+01  0.61077084770E+01  0.97964616925E+01  0.14010888058E+02  0.51100000000E-03 0. -1.
<mgrwt>
<rscale>  0 0.20061016E+02</rscale>
<asrwt>0</asrwt>
<pdfrwt beam="1">  1        4 0.38654052E-02 0.20061016E+02</pdfrwt>
<pdfrwt beam="2">  1       -4 0.61606157E-03 0.20061016E+02</pdfrwt>
<totfact> 0.12424257E+06</totfact>
</mgrwt>
</event>
<event>
 5    1  0.1154861E-006  0.2000407E+02  0.7818608E-02  0.1745247E+00
          4   -1    0    0  501    0  0.00000000000E+00  0.00000000000E+00  0.60347483008E+02  0.60364187275E+02  0.14200000000E+01 0.  1.
         -4   -1    0    0    0  501 -0.00000000000E+00 -0.00000000000E+00 -0.13335343431E+01  0.19480025268E+01  0.14200000000E+01 0. -1.
       1023    2    1    2    0    0  0.00000000000E+00  0.00000000000E+00  0.59013948665E+02  0.62312189802E+02  0.20004071108E+02 0.  0.
        -11    1    3    3    0    0  0.86611563246E+01  0.49997049134E+01  0.30028552424E+02  0.31650065388E+02  0.51100000000E-03 0. -1.
         11    1    3    3    0    0 -0.86611563246E+01 -0.49997049134E+01  0.28985396240E+02  0.30662124414E+02  0.51100000000E-03 0.  1.
<mgrwt>
<rscale>  0 0.20004071E+02</rscale>
<asrwt>0</asrwt>
<pdfrwt beam="1">  1        4 0.93327785E-02 0.20004071E+02</pdfrwt>
<pdfrwt beam="2">  1       -4 0.25371089E-03 0.20004071E+02</pdfrwt>
<totfact> 0.11026453E+06</totfact>
</mgrwt>
</event>
<event>
 5    1  0.1154861E-006  0.2000063E+02  0.7818608E-02  0.1745316E+00
         -4   -1    0    0    0  501 -0.00000000000E+00  0.00000000000E+00  0.23679287840E+02  0.23721826924E+02  0.14200000000E+01 0. -1.
          4   -1    0    0  501    0  0.00000000000E+00 -0.00000000000E+00 -0.40562399188E+01  0.42976135563E+01  0.14200000000E+01 0.  1.
       1023    2    1    2    0    0  0.00000000000E+00  0.00000000000E+00  0.19623047921E+02  0.28019440480E+02  0.20000625868E+02 0.  0.
        -11    1    3    3    0    0 -0.98053092938E+01 -0.19645698880E+01  0.97396340323E+01  0.13959373071E+02  0.51100000000E-03 0.  1.
         11    1    3    3    0    0  0.98053092938E+01  0.19645698880E+01  0.98834138890E+01  0.14060067409E+02  0.51100000000E-03 0. -1.
<mgrwt>
<rscale>  0 0.20000626E+02</rscale>
<asrwt>0</asrwt>
<pdfrwt beam="2">  1        4 0.64587633E-03 0.20000626E+02</pdfrwt>
<pdfrwt beam="1">  1       -4 0.36648069E-02 0.20000626E+02</pdfrwt>
<totfact> 0.12559709E+06</totfact>
</mgrwt>
</event>
<event>
 5    1  0.1171453E-006  0.2000065E+02  0.7818608E-02  0.1745315E+00
          4   -1    0    0  501    0  0.00000000000E+00  0.00000000000E+00  0.12583157115E+02  0.12663026612E+02  0.14200000000E+01 0.  1.
         -4   -1    0    0    0  501 -0.00000000000E+00 -0.00000000000E+00 -0.77781524885E+01  0.79067095643E+01  0.14200000000E+01 0. -1.
       1023    2    1    2    0    0  0.00000000000E+00  0.00000000000E+00  0.48050046261E+01  0.20569736176E+02  0.20000649412E+02 0.  0.
        -11    1    3    3    0    0 -0.10913671216E+01  0.99405855512E+01  0.24159380270E+01  0.10288006615E+02  0.51100000000E-03 0.  1.
         11    1    3    3    0    0  0.10913671216E+01 -0.99405855512E+01  0.23890665991E+01  0.10281729561E+02  0.51100000000E-03 0. -1.
<mgrwt>
<rscale>  0 0.20000649E+02</rscale>
<asrwt>0</asrwt>
<pdfrwt beam="1">  1        4 0.19519031E-02 0.20000649E+02</pdfrwt>
<pdfrwt beam="2">  1       -4 0.12126717E-02 0.20000649E+02</pdfrwt>
<totfact> 0.12979335E+06</totfact>
</mgrwt>
</event>
<event>
 5    1  0.1154861E-006  0.2000153E+02  0.7818608E-02  0.1745298E+00
         -4   -1    0    0    0  501 -0.00000000000E+00  0.00000000000E+00  0.27103063929E+01  0.30597648183E+01  0.14200000000E+01 0.  1.
          4   -1    0    0  501    0  0.00000000000E+00 -0.00000000000E+00 -0.34301867124E+02  0.34331246529E+02  0.14200000000E+01 0. -1.
       1023    2    1    2    0    0  0.00000000000E+00  0.00000000000E+00 -0.31591560732E+02  0.37391011347E+02  0.20001525444E+02 0.  0.
        -11    1    3    3    0    0  0.37032346938E+01  0.92895661362E+01 -0.15660089559E+02  0.18580860891E+02  0.51100000000E-03 0. -1.
         11    1    3    3    0    0 -0.37032346938E+01 -0.92895661362E+01 -0.15931471172E+02  0.18810150456E+02  0.51100000000E-03 0.  1.
<mgrwt>
<rscale>  0 0.20001525E+02</rscale>
<asrwt>0</asrwt>
<pdfrwt beam="2">  1        4 0.53063514E-02 0.20001525E+02</pdfrwt>
<pdfrwt beam="1">  1       -4 0.44611161E-03 0.20001525E+02</pdfrwt>
<totfact> 0.12083950E+06</totfact>
</mgrwt>
</event>
<event>
 5    1  0.1154861E-006  0.2000033E+02  0.7818608E-02  0.1745322E+00
          4   -1    0    0  501    0  0.00000000000E+00  0.00000000000E+00  0.79647409489E+02  0.79660066773E+02  0.14200000000E+01 0. -1.
         -4   -1    0    0    0  501 -0.00000000000E+00 -0.00000000000E+00 -0.83716438340E+00  0.16484065654E+01  0.14200000000E+01 0.  1.
       1023    2    1    2    0    0  0.00000000000E+00  0.00000000000E+00  0.78810245106E+02  0.81308473339E+02  0.20000327574E+02 0.  0.
        -11    1    3    3    0    0 -0.57935253337E+01  0.81507733565E+01  0.39173954229E+02  0.40430171064E+02  0.51100000000E-03 0.  1.
         11    1    3    3    0    0  0.57935253337E+01 -0.81507733565E+01  0.39636290877E+02  0.40878302274E+02  0.51100000000E-03 0. -1.
<mgrwt>
<rscale>  0 0.20000328E+02</rscale>
<asrwt>0</asrwt>
<pdfrwt beam="1">  1        4 0.12316826E-01 0.20000328E+02</pdfrwt>
<pdfrwt beam="2">  1       -4 0.19217138E-03 0.20000328E+02</pdfrwt>
<totfact> 0.10368258E+06</totfact>
</mgrwt>
</event>
<event>
 5    1  0.1154861E-006  0.2000066E+02  0.7818608E-02  0.1745315E+00
         -4   -1    0    0    0  501 -0.00000000000E+00  0.00000000000E+00  0.60737135524E+02  0.60753732656E+02  0.14200000000E+01 0.  1.
          4   -1    0    0  501    0  0.00000000000E+00 -0.00000000000E+00 -0.13203596589E+01  0.19390073824E+01  0.14200000000E+01 0. -1.
       1023    2    1    2    0    0  0.00000000000E+00  0.00000000000E+00  0.59416775865E+02  0.62692740038E+02  0.20000659973E+02 0.  0.
        -11    1    3    3    0    0 -0.99766408510E+01  0.68700505197E+00  0.29597080562E+02  0.31240878936E+02  0.51100000000E-03 0. -1.
         11    1    3    3    0    0  0.99766408510E+01 -0.68700505197E+00  0.29819695302E+02  0.31451861102E+02  0.51100000000E-03 0.  1.
<mgrwt>
<rscale>  0 0.20000660E+02</rscale>
<asrwt>0</asrwt>
<pdfrwt beam="2">  1        4 0.25199726E-03 0.20000660E+02</pdfrwt>
<pdfrwt beam="1">  1       -4 0.93930392E-02 0.20000660E+02</pdfrwt>
<totfact> 0.11015938E+06</totfact>
</mgrwt>
</event>
<event>
 5    1  0.1154861E-006  0.2000022E+02  0.7818608E-02  0.1745324E+00
          4   -1    0    0  501    0  0.00000000000E+00  0.00000000000E+00  0.14388806739E+02  0.14458705315E+02  0.14200000000E+01 0.  1.
         -4   -1    0    0    0  501 -0.00000000000E+00 -0.00000000000E+00 -0.67896291358E+01  0.69365311073E+01  0.14200000000E+01 0. -1.
       1023    2    1    2    0    0  0.00000000000E+00  0.00000000000E+00  0.75991776035E+01  0.21395236422E+02  0.20000216032E+02 0.  0.
        -11    1    3    3    0    0 -0.57829337102E+01 -0.81584144167E+01  0.38109086938E+01  0.10701638820E+02  0.51100000000E-03 0. -1.
         11    1    3    3    0    0  0.57829337102E+01  0.81584144167E+01  0.37882689098E+01  0.10693597603E+02  0.51100000000E-03 0.  1.
<mgrwt>
<rscale>  0 0.20000216E+02</rscale>
<asrwt>0</asrwt>
<pdfrwt beam="1">  1        4 0.22303395E-02 0.20000216E+02</pdfrwt>
<pdfrwt beam="2">  1       -4 0.10612353E-02 0.20000216E+02</pdfrwt>
<totfact> 0.12931216E+06</totfact>
</mgrwt>
</event>
<event>
 5    1  0.1154861E-006  0.2000249E+02  0.7818608E-02  0.1745279E+00
         -4   -1    0    0    0  501 -0.00000000000E+00  0.00000000000E+00  0.11431233855E+02  0.11519093170E+02  0.14200000000E+01 0.  1.
          4   -1    0    0  501    0  0.00000000000E+00 -0.00000000000E+00 -0.85701390332E+01  0.86869835414E+01  0.14200000000E+01 0. -1.
       1023    2    1    2    0    0  0.00000000000E+00  0.00000000000E+00  0.28610948221E+01  0.20206076711E+02  0.20002491657E+02 0.  0.
        -11    1    3    3    0    0 -0.67251303540E+01 -0.74023071448E+01  0.13717440064E+01  0.10094712043E+02  0.51100000000E-03 0. -1.
         11    1    3    3    0    0  0.67251303540E+01  0.74023071448E+01  0.14893508157E+01  0.10111364668E+02  0.51100000000E-03 0.  1.
<mgrwt>
<rscale>  0 0.20002492E+02</rscale>
<asrwt>0</asrwt>
<pdfrwt beam="2">  1        4 0.13342294E-02 0.20002492E+02</pdfrwt>
<pdfrwt beam="1">  1       -4 0.17743978E-02 0.20002492E+02</pdfrwt>
<totfact> 0.12998475E+06</totfact>
</mgrwt>
</event>
<event>
 5    1  0.1154861E-006  0.2000027E+02  0.7818608E-02  0.1745323E+00
         -4   -1    0    0    0  501 -0.00000000000E+00  0.00000000000E+00  0.15412847993E+01  0.20957000817E+01  0.14200000000E+01 0.  1.
          4   -1    0    0  501    0  0.00000000000E+00 -0.00000000000E+00 -0.54427003781E+02  0.54445524523E+02  0.14200000000E+01 0. -1.
       1023    2    1    2    0    0  0.00000000000E+00  0.00000000000E+00 -0.52885718982E+02  0.56541224605E+02  0.20000270188E+02 0.  0.
        -11    1    3    3    0    0 -0.97320574457E+01 -0.22998638435E+01 -0.26387331094E+02  0.28218673929E+02  0.51100000000E-03 0.  1.
         11    1    3    3    0    0  0.97320574457E+01  0.22998638435E+01 -0.26498387888E+02  0.28322550675E+02  0.51100000000E-03 0. -1.
<mgrwt>
<rscale>  0 0.20000270E+02</rscale>
<asrwt>0</asrwt>
<pdfrwt beam="2">  1        4 0.84174559E-02 0.20000270E+02</pdfrwt>
<pdfrwt beam="1">  1       -4 0.28119278E-03 0.20000270E+02</pdfrwt>
<totfact> 0.11253232E+06</totfact>
</mgrwt>
</event>
<event>
 5    1  0.1154861E-006  0.2000599E+02  0.7818608E-02  0.1745209E+00
          4   -1    0    0  501    0  0.00000000000E+00  0.00000000000E+00  0.10354565637E+01  0.17574328708E+01  0.14200000000E+01 0.  1.
         -4   -1    0    0    0  501 -0.00000000000E+00 -0.00000000000E+00 -0.70922383482E+02  0.70936597598E+02  0.14200000000E+01 0. -1.
       1023    2    1    2    0    0  0.00000000000E+00  0.00000000000E+00 -0.69886926919E+02  0.72694030469E+02  0.20005986896E+02 0.  0.
        -11    1    3    3    0    0 -0.85356643076E+01  0.52116728965E+01 -0.34209706364E+02  0.35641592407E+02  0.51100000000E-03 0. -1.
         11    1    3    3    0    0  0.85356643076E+01 -0.52116728965E+01 -0.35677220554E+02  0.37052438061E+02  0.51100000000E-03 0.  1.
<mgrwt>
<rscale>  0 0.20005987E+02</rscale>
<asrwt>0</asrwt>
<pdfrwt beam="1">  1        4 0.21593110E-03 0.20005987E+02</pdfrwt>
<pdfrwt beam="2">  1       -4 0.10967763E-01 0.20005987E+02</pdfrwt>
<totfact> 0.10650314E+06</totfact>
</mgrwt>
</event>
<event>
 5    1  0.1161304E-006  0.2000053E+02  0.7818608E-02  0.1745318E+00
         -4   -1    0    0    0  501 -0.00000000000E+00  0.00000000000E+00  0.17462401652E+02  0.17520041994E+02  0.14200000000E+01 0. -1.
          4   -1    0    0  501    0  0.00000000000E+00 -0.00000000000E+00 -0.55705988242E+01  0.57487364925E+01  0.14200000000E+01 0.  1.
       1023    2    1    2    0    0  0.00000000000E+00  0.00000000000E+00  0.11891802828E+02  0.23268778486E+02  0.20000526937E+02 0.  0.
        -11    1    3    3    0    0  0.61458077414E+01 -0.78888704994E+01  0.59531317994E+01  0.11638084423E+02  0.51100000000E-03 0. -1.
         11    1    3    3    0    0 -0.61458077414E+01  0.78888704994E+01  0.59386710288E+01  0.11630694064E+02  0.51100000000E-03 0.  1.
<mgrwt>
<rscale>  0 0.20000527E+02</rscale>
<asrwt>0</asrwt>
<pdfrwt beam="2">  1        4 0.87515198E-03 0.20000527E+02</pdfrwt>
<pdfrwt beam="1">  1       -4 0.27046601E-02 0.20000527E+02</pdfrwt>
<totfact> 0.12822536E+06</totfact>
</mgrwt>
</event>
<event>
 5    1  0.1154861E-006  0.2000262E+02  0.7818608E-02  0.1745276E+00
          4   -1    0    0  501    0  0.00000000000E+00  0.00000000000E+00  0.70298125482E+02  0.70312465795E+02  0.14200000000E+01 0.  1.
         -4   -1    0    0    0  501 -0.00000000000E+00 -0.00000000000E+00 -0.10504316192E+01  0.17662974230E+01  0.14200000000E+01 0. -1.
       1023    2    1    2    0    0  0.00000000000E+00  0.00000000000E+00  0.69247693862E+02  0.72078763218E+02  0.20002624874E+02 0.  0.
        -11    1    3    3    0    0 -0.35955603302E+01  0.93323361372E+01  0.34351831098E+02  0.35778049861E+02  0.51100000000E-03 0. -1.
         11    1    3    3    0    0  0.35955603302E+01 -0.93323361372E+01  0.34895862765E+02  0.36300713357E+02  0.51100000000E-03 0.  1.
<mgrwt>
<rscale>  0 0.20002625E+02</rscale>
<asrwt>0</asrwt>
<pdfrwt beam="1">  1        4 0.10871262E-01 0.20002625E+02</pdfrwt>
<pdfrwt beam="2">  1       -4 0.21777464E-03 0.20002625E+02</pdfrwt>
<totfact> 0.10675211E+06</totfact>
</mgrwt>
</event>
<event>
 4    1  0.1154861E-006  0.2001766E+02  0.7818608E-02  0.1744977E+00
         -4   -1    0    0    0  501 -0.00000000000E+00  0.00000000000E+00  0.26174724595E+02  0.26213214370E+02  0.14200000000E+01 0.  1.
          4   -1    0    0  501    0  0.00000000000E+00 -0.00000000000E+00 -0.36526742405E+01  0.39189831727E+01  0.14200000000E+01 0. -1.
        -11    1    1    2    0    0  0.98555270256E+01 -0.17450485716E+01  0.11251941157E+02  0.15059308999E+02  0.51100000000E-03 0.  1.
         11    1    1    2    0    0 -0.98555270256E+01  0.17450485716E+01  0.11270109197E+02  0.15072888544E+02  0.51100000000E-03 0. -1.
<mgrwt>
<rscale>  0 0.20017657E+02</rscale>
<asrwt>0</asrwt>
<pdfrwt beam="2">  1        4 0.58539594E-03 0.20017657E+02</pdfrwt>
<pdfrwt beam="1">  1       -4 0.40503268E-02 0.20017657E+02</pdfrwt>
<totfact> 0.12426538E+06</totfact>
</mgrwt>
</event>
<event>
 5    1  0.1154861E-006  0.2000095E+02  0.7818608E-02  0.1745309E+00
         -4   -1    0    0    0  501 -0.00000000000E+00  0.00000000000E+00  0.66489542841E+00  0.15679559722E+01  0.14200000000E+01 0. -1.
          4   -1    0    0  501    0  0.00000000000E+00 -0.00000000000E+00 -0.88669075269E+02  0.88680444907E+02  0.14200000000E+01 0.  1.
       1023    2    1    2    0    0  0.00000000000E+00  0.00000000000E+00 -0.88004179840E+02  0.90248400880E+02  0.20000954777E+02 0.  0.
        -11    1    3    3    0    0  0.80562108675E+01 -0.59246401911E+01 -0.44341340540E+02  0.45455014862E+02  0.51100000000E-03 0.  1.
         11    1    3    3    0    0 -0.80562108675E+01  0.59246401911E+01 -0.43662839300E+02  0.44793386018E+02  0.51100000000E-03 0. -1.
<mgrwt>
<rscale>  0 0.20000955E+02</rscale>
<asrwt>0</asrwt>
<pdfrwt beam="2">  1        4 0.13711731E-01 0.20000955E+02</pdfrwt>
<pdfrwt beam="1">  1       -4 0.17263246E-03 0.20000955E+02</pdfrwt>
<totfact> 0.10087185E+06</totfact>
</mgrwt>
</event>
<event>
 5    1  0.1154861E-006  0.2000071E+02  0.7818608E-02  0.1745314E+00
          4   -1    0    0  501    0  0.00000000000E+00  0.00000000000E+00  0.15834170685E+01  0.21268779026E+01  0.14200000000E+01 0. -1.
         -4   -1    0    0    0  501 -0.00000000000E+00 -0.00000000000E+00 -0.53353600767E+02  0.53372493991E+02  0.14200000000E+01 0.  1.
       1023    2    1    2    0    0  0.00000000000E+00  0.00000000000E+00 -0.51770183699E+02  0.55499371894E+02  0.20000708997E+02 0.  0.
        -11    1    3    3    0    0 -0.92960036925E+01  0.36861439186E+01 -0.25715207276E+02  0.27591216486E+02  0.51100000000E-03 0. -1.
         11    1    3    3    0    0  0.92960036925E+01 -0.36861439186E+01 -0.26054976422E+02  0.27908155408E+02  0.51100000000E-03 0.  1.
<mgrwt>
<rscale>  0 0.20000709E+02</rscale>
<asrwt>0</asrwt>
<pdfrwt beam="1">  1        4 0.28686067E-03 0.20000709E+02</pdfrwt>
<pdfrwt beam="2">  1       -4 0.82515031E-02 0.20000709E+02</pdfrwt>
<totfact> 0.11294124E+06</totfact>
</mgrwt>
</event>
<event>
 5    1  0.1154861E-006  0.2000200E+02  0.7818608E-02  0.1745288E+00
         -4   -1    0    0    0  501 -0.00000000000E+00  0.00000000000E+00  0.11059932306E+03  0.11060843847E+03  0.14200000000E+01 0. -1.
          4   -1    0    0  501    0  0.00000000000E+00 -0.00000000000E+00 -0.33203591106E+00  0.14583030708E+01  0.14200000000E+01 0.  1.
       1023    2    1    2    0    0  0.00000000000E+00  0.00000000000E+00  0.11026728715E+03  0.11206674154E+03  0.20001998524E+02 0.  0.
        -11    1    3    3    0    0 -0.45919609592E+01  0.88836880522E+01  0.54471493071E+02  0.55381852412E+02  0.51100000000E-03 0. -1.
         11    1    3    3    0    0  0.45919609592E+01 -0.88836880522E+01  0.55795794077E+02  0.56684889131E+02  0.51100000000E-03 0.  1.
<mgrwt>
<rscale>  0 0.20001999E+02</rscale>
<asrwt>0</asrwt>
<pdfrwt beam="2">  1        4 0.13841973E-03 0.20001999E+02</pdfrwt>
<pdfrwt beam="1">  1       -4 0.17102597E-01 0.20001999E+02</pdfrwt>
<totfact> 0.94684926E+05</totfact>
</mgrwt>
</event>
<event>
 5    1  0.1154861E-006  0.2000887E+02  0.7818608E-02  0.1745152E+00
          4   -1    0    0  501    0  0.00000000000E+00  0.00000000000E+00  0.34914886380E+02  0.34943750385E+02  0.14200000000E+01 0.  1.
         -4   -1    0    0    0  501 -0.00000000000E+00 -0.00000000000E+00 -0.26588099190E+01  0.30142445463E+01  0.14200000000E+01 0. -1.
       1023    2    1    2    0    0  0.00000000000E+00  0.00000000000E+00  0.32256076461E+02  0.37957994931E+02  0.20008870795E+02 0.  0.
        -11    1    3    3    0    0 -0.54038863801E+01  0.84159517158E+01  0.16586860030E+02  0.19368896644E+02  0.51100000000E-03 0. -1.
         11    1    3    3    0    0  0.54038863801E+01 -0.84159517158E+01  0.15669216431E+02  0.18589098287E+02  0.51100000000E-03 0.  1.
<mgrwt>
<rscale>  0 0.20008871E+02</rscale>
<asrwt>0</asrwt>
<pdfrwt beam="1">  1        4 0.54010823E-02 0.20008871E+02</pdfrwt>
<pdfrwt beam="2">  1       -4 0.43860912E-03 0.20008871E+02</pdfrwt>
<totfact> 0.12047907E+06</totfact>
</mgrwt>
</event>
<event>
 4    1  0.1154861E-006  0.2002412E+02  0.7818608E-02  0.1744849E+00
          4   -1    0    0  501    0  0.00000000000E+00  0.00000000000E+00  0.10888518353E+01  0.17894128421E+01  0.14200000000E+01 0. -1.
         -4   -1    0    0    0  501 -0.00000000000E+00 -0.00000000000E+00 -0.68944358102E+02  0.68958979939E+02  0.14200000000E+01 0.  1.
        -11    1    1    2    0    0 -0.19390995479E+01  0.98212313554E+01 -0.33373093195E+02  0.34842216377E+02  0.51100000000E-03 0. -1.
         11    1    1    2    0    0  0.19390995479E+01 -0.98212313554E+01 -0.34482413072E+02  0.35906176404E+02  0.51100000000E-03 0.  1.
<mgrwt>
<rscale>  0 0.20024119E+02</rscale>
<asrwt>0</asrwt>
<pdfrwt beam="1">  1        4 0.22252978E-03 0.20024119E+02</pdfrwt>
<pdfrwt beam="2">  1       -4 0.10661836E-01 0.20024119E+02</pdfrwt>
<totfact> 0.10698552E+06</totfact>
</mgrwt>
</event>
<event>
 5    1  0.1154861E-006  0.2000775E+02  0.7818608E-02  0.1745174E+00
          4   -1    0    0  501    0  0.00000000000E+00  0.00000000000E+00  0.14421999195E+02  0.14491737673E+02  0.14200000000E+01 0.  1.
         -4   -1    0    0    0  501 -0.00000000000E+00 -0.00000000000E+00 -0.67790120189E+01  0.69261391808E+01  0.14200000000E+01 0. -1.
       1023    2    1    2    0    0  0.00000000000E+00  0.00000000000E+00  0.76429871765E+01  0.21417876854E+02  0.20007753396E+02 0.  0.
        -11    1    3    3    0    0  0.98538800794E+00 -0.99536962672E+01  0.40084134827E+01  0.10775640947E+02  0.51100000000E-03 0.  1.
         11    1    3    3    0    0 -0.98538800794E+00  0.99536962672E+01  0.36345736938E+01  0.10642235907E+02  0.51100000000E-03 0. -1.
<mgrwt>
<rscale>  0 0.20007753E+02</rscale>
<asrwt>0</asrwt>
<pdfrwt beam="1">  1        4 0.22354511E-02 0.20007753E+02</pdfrwt>
<pdfrwt beam="2">  1       -4 0.10596069E-02 0.20007753E+02</pdfrwt>
<totfact> 0.12919954E+06</totfact>
</mgrwt>
</event>
<event>
 5    1  0.1154861E-006  0.2000027E+02  0.7818608E-02  0.1745323E+00
         -4   -1    0    0    0  501 -0.00000000000E+00  0.00000000000E+00  0.93535097637E+01  0.94606841665E+01  0.14200000000E+01 0. -1.
          4   -1    0    0  501    0  0.00000000000E+00 -0.00000000000E+00 -0.10475211045E+02  0.10571019177E+02  0.14200000000E+01 0.  1.
       1023    2    1    2    0    0  0.00000000000E+00  0.00000000000E+00 -0.11217012818E+01  0.20031703344E+02  0.20000273125E+02 0.  0.
        -11    1    3    3    0    0 -0.58299178675E+01  0.81247812154E+01 -0.50862590074E+00  0.10012927280E+02  0.51100000000E-03 0.  1.
         11    1    3    3    0    0  0.58299178675E+01 -0.81247812154E+01 -0.61307538109E+00  0.10018776064E+02  0.51100000000E-03 0. -1.
<mgrwt>
<rscale>  0 0.20000273E+02</rscale>
<asrwt>0</asrwt>
<pdfrwt beam="2">  1        4 0.16271850E-02 0.20000273E+02</pdfrwt>
<pdfrwt beam="1">  1       -4 0.14546155E-02 0.20000273E+02</pdfrwt>
<totfact> 0.13011801E+06</totfact>
</mgrwt>
</event>
<event>
 5    1  0.1154861E-006  0.2000520E+02  0.7818608E-02  0.1745225E+00
         -4   -1    0    0    0  501 -0.00000000000E+00  0.00000000000E+00  0.32635794416E+02  0.32666672269E+02  0.14200000000E+01 0. -1.
          4   -1    0    0  501    0  0.00000000000E+00 -0.00000000000E+00 -0.28671183013E+01  0.31994948591E+01  0.14200000000E+01 0.  1.
       1023    2    1    2    0    0  0.00000000000E+00  0.00000000000E+00  0.29768676114E+02  0.35866167128E+02  0.20005195997E+02 0.  0.
        -11    1    3    3    0    0  0.46382575197E+01  0.88620603679E+01  0.14972528278E+02  0.18006280851E+02  0.51100000000E-03 0.  1.
         11    1    3    3    0    0 -0.46382575197E+01 -0.88620603679E+01  0.14796147836E+02  0.17859886277E+02  0.51100000000E-03 0. -1.
<mgrwt>
<rscale>  0 0.20005196E+02</rscale>
<asrwt>0</asrwt>
<pdfrwt beam="2">  1        4 0.46903776E-03 0.20005196E+02</pdfrwt>
<pdfrwt beam="1">  1       -4 0.50488342E-02 0.20005196E+02</pdfrwt>
<totfact> 0.12153130E+06</totfact>
</mgrwt>
</event>
<event>
 5    1  0.1154861E-006  0.2000010E+02  0.7818608E-02  0.1745326E+00
          4   -1    0    0  501    0  0.00000000000E+00  0.00000000000E+00  0.16239419225E+01  0.21572175059E+01  0.14200000000E+01 0. -1.
         -4   -1    0    0    0  501 -0.00000000000E+00 -0.00000000000E+00 -0.52350120772E+02  0.52369376022E+02  0.14200000000E+01 0.  1.
       1023    2    1    2    0    0  0.00000000000E+00  0.00000000000E+00 -0.50726178850E+02  0.54526593527E+02  0.20000104525E+02 0.  0.
        -11    1    3    3    0    0 -0.99518017433E+01 -0.98116494237E+00 -0.25367318882E+02  0.27267231434E+02  0.51100000000E-03 0. -1.
         11    1    3    3    0    0  0.99518017433E+01  0.98116494237E+00 -0.25358859968E+02  0.27259362093E+02  0.51100000000E-03 0.  1.
<mgrwt>
<rscale>  0 0.20000105E+02</rscale>
<asrwt>0</asrwt>
<pdfrwt beam="1">  1        4 0.29233963E-03 0.20000105E+02</pdfrwt>
<pdfrwt beam="2">  1       -4 0.80963660E-02 0.20000105E+02</pdfrwt>
<totfact> 0.11333817E+06</totfact>
</mgrwt>
</event>
<event>
 4    1  0.1154861E-006  0.2002393E+02  0.7818608E-02  0.1744853E+00
         -4   -1    0    0    0  501 -0.00000000000E+00  0.00000000000E+00  0.17413719608E+02  0.17471520557E+02  0.14200000000E+01 0. -1.
          4   -1    0    0  501    0  0.00000000000E+00 -0.00000000000E+00 -0.56002506251E+01  0.57774741076E+01  0.14200000000E+01 0.  1.
        -11    1    1    2    0    0  0.28741913376E+01  0.95903035995E+01  0.58286179447E+01  0.11584804115E+02  0.51100000000E-03 0.  1.
         11    1    1    2    0    0 -0.28741913376E+01 -0.95903035995E+01  0.59848510381E+01  0.11664190550E+02  0.51100000000E-03 0. -1.
<mgrwt>
<rscale>  0 0.20023928E+02</rscale>
<asrwt>0</asrwt>
<pdfrwt beam="2">  1        4 0.87965584E-03 0.20023928E+02</pdfrwt>
<pdfrwt beam="1">  1       -4 0.26971125E-02 0.20023928E+02</pdfrwt>
<totfact> 0.12793133E+06</totfact>
</mgrwt>
</event>
<event>
 5    1  0.1154861E-006  0.2000038E+02  0.7818608E-02  0.1745321E+00
         -4   -1    0    0    0  501 -0.00000000000E+00  0.00000000000E+00  0.47850699151E+00  0.14984555185E+01  0.14200000000E+01 0.  1.
          4   -1    0    0  501    0  0.00000000000E+00 -0.00000000000E+00 -0.10014153760E+03  0.10015160485E+03  0.14200000000E+01 0. -1.
       1023    2    1    2    0    0  0.00000000000E+00  0.00000000000E+00 -0.99663030610E+02  0.10165006036E+03  0.20000377539E+02 0.  0.
        -11    1    3    3    0    0 -0.43463172818E+01 -0.90061932313E+01 -0.49616803580E+02  0.50614515588E+02  0.51100000000E-03 0. -1.
         11    1    3    3    0    0  0.43463172818E+01  0.90061932313E+01 -0.50046227030E+02  0.51035544776E+02  0.51100000000E-03 0.  1.
<mgrwt>
<rscale>  0 0.20000378E+02</rscale>
<asrwt>0</asrwt>
<pdfrwt beam="2">  1        4 0.15485614E-01 0.20000378E+02</pdfrwt>
<pdfrwt beam="1">  1       -4 0.15284852E-03 0.20000378E+02</pdfrwt>
<totfact> 0.97541487E+05</totfact>
</mgrwt>
</event>
<event>
 5    1  0.1154861E-006  0.2000627E+02  0.7818608E-02  0.1745203E+00
          4   -1    0    0  501    0  0.00000000000E+00  0.00000000000E+00  0.65910238990E+01  0.67422545218E+01  0.14200000000E+01 0. -1.
         -4   -1    0    0    0  501 -0.00000000000E+00 -0.00000000000E+00 -0.14823926432E+02  0.14891782797E+02  0.14200000000E+01 0.  1.
       1023    2    1    2    0    0  0.00000000000E+00  0.00000000000E+00 -0.82329025332E+01  0.21634037319E+02  0.20006271181E+02 0.  0.
        -11    1    3    3    0    0  0.98413273918E+01  0.17772396819E+01 -0.43640235193E+01  0.10911233077E+02  0.51100000000E-03 0. -1.
         11    1    3    3    0    0 -0.98413273918E+01 -0.17772396819E+01 -0.38688790138E+01  0.10722804242E+02  0.51100000000E-03 0.  1.
<mgrwt>
<rscale>  0 0.20006271E+02</rscale>
<asrwt>0</asrwt>
<pdfrwt beam="1">  1        4 0.10308565E-02 0.20006271E+02</pdfrwt>
<pdfrwt beam="2">  1       -4 0.22974569E-02 0.20006271E+02</pdfrwt>
<totfact> 0.12909272E+06</totfact>
</mgrwt>
</event>
<event>
 5    1  0.1154861E-006  0.2000262E+02  0.7818608E-02  0.1745276E+00
          4   -1    0    0  501    0  0.00000000000E+00  0.00000000000E+00  0.77331718675E+00  0.16169166557E+01  0.14200000000E+01 0.  1.
         -4   -1    0    0    0  501 -0.00000000000E+00 -0.00000000000E+00 -0.82843948714E+02  0.82856117689E+02  0.14200000000E+01 0. -1.
       1023    2    1    2    0    0  0.00000000000E+00  0.00000000000E+00 -0.82070631527E+02  0.84473034345E+02  0.20002624132E+02 0.  0.
        -11    1    3    3    0    0  0.84053024734E+01  0.54195241606E+01 -0.40711181570E+02  0.41921601316E+02  0.51100000000E-03 0.  1.
         11    1    3    3    0    0 -0.84053024734E+01 -0.54195241606E+01 -0.41359449957E+02  0.42551433029E+02  0.51100000000E-03 0. -1.
<mgrwt>
<rscale>  0 0.20002624E+02</rscale>
<asrwt>0</asrwt>
<pdfrwt beam="1">  1        4 0.18480028E-03 0.20002624E+02</pdfrwt>
<pdfrwt beam="2">  1       -4 0.12811047E-01 0.20002624E+02</pdfrwt>
<totfact> 0.10264644E+06</totfact>
</mgrwt>
</event>
<event>
 5    1  0.1154861E-006  0.2000025E+02  0.7818608E-02  0.1745323E+00
          4   -1    0    0  501    0  0.00000000000E+00  0.00000000000E+00  0.38817039476E+02  0.38843003922E+02  0.14200000000E+01 0.  1.
         -4   -1    0    0    0  501 -0.00000000000E+00 -0.00000000000E+00 -0.23516242694E+01  0.27470960494E+01  0.14200000000E+01 0. -1.
       1023    2    1    2    0    0  0.00000000000E+00  0.00000000000E+00  0.36465415206E+02  0.41590099971E+02  0.20000247734E+02 0.  0.
        -11    1    3    3    0    0  0.95277096034E+01 -0.30369879326E+01  0.18141326176E+02  0.20714928474E+02  0.51100000000E-03 0.  1.
         11    1    3    3    0    0 -0.95277096034E+01  0.30369879326E+01  0.18324089030E+02  0.20875171497E+02  0.51100000000E-03 0. -1.
<mgrwt>
<rscale>  0 0.20000248E+02</rscale>
<asrwt>0</asrwt>
<pdfrwt beam="1">  1        4 0.60042703E-02 0.20000248E+02</pdfrwt>
<pdfrwt beam="2">  1       -4 0.39420653E-03 0.20000248E+02</pdfrwt>
<totfact> 0.11888938E+06</totfact>
</mgrwt>
</event>
<event>
 5    1  0.1154861E-006  0.2000028E+02  0.7818608E-02  0.1745323E+00
         -4   -1    0    0    0  501 -0.00000000000E+00  0.00000000000E+00  0.17568867024E+02  0.17626159211E+02  0.14200000000E+01 0.  1.
          4   -1    0    0  501    0  0.00000000000E+00 -0.00000000000E+00 -0.55357284588E+01  0.57149531555E+01  0.14200000000E+01 0. -1.
       1023    2    1    2    0    0  0.00000000000E+00  0.00000000000E+00  0.12033138566E+02  0.23341112366E+02  0.20000277567E+02 0.  0.
        -11    1    3    3    0    0  0.98095455743E+01 -0.19430777598E+01  0.60239384711E+01  0.11674355251E+02  0.51100000000E-03 0.  1.
         11    1    3    3    0    0 -0.98095455743E+01  0.19430777598E+01  0.60092000945E+01  0.11666757115E+02  0.51100000000E-03 0. -1.
<mgrwt>
<rscale>  0 0.20000278E+02</rscale>
<asrwt>0</asrwt>
<pdfrwt beam="2">  1        4 0.86984414E-03 0.20000278E+02</pdfrwt>
<pdfrwt beam="1">  1       -4 0.27210962E-02 0.20000278E+02</pdfrwt>
<totfact> 0.12818741E+06</totfact>
</mgrwt>
</event>
<event>
 5    1  0.1154861E-006  0.2000087E+02  0.7818608E-02  0.1745311E+00
         -4   -1    0    0    0  501 -0.00000000000E+00  0.00000000000E+00  0.27037686247E+01  0.30539752415E+01  0.14200000000E+01 0. -1.
          4   -1    0    0  501    0  0.00000000000E+00 -0.00000000000E+00 -0.34373085877E+02  0.34402404461E+02  0.14200000000E+01 0.  1.
       1023    2    1    2    0    0  0.00000000000E+00  0.00000000000E+00 -0.31669317252E+02  0.37456379703E+02  0.20000868111E+02 0.  0.
        -11    1    3    3    0    0 -0.43060116235E+01 -0.90258608170E+01 -0.15782307275E+02  0.18683926856E+02  0.51100000000E-03 0. -1.
         11    1    3    3    0    0  0.43060116235E+01  0.90258608170E+01 -0.15887009978E+02  0.18772452847E+02  0.51100000000E-03 0.  1.
<mgrwt>
<rscale>  0 0.20000868E+02</rscale>
<asrwt>0</asrwt>
<pdfrwt beam="2">  1        4 0.53173610E-02 0.20000868E+02</pdfrwt>
<pdfrwt beam="1">  1       -4 0.44515867E-03 0.20000868E+02</pdfrwt>
<totfact> 0.12081624E+06</totfact>
</mgrwt>
</event>
<event>
 5    1  0.1185936E-006  0.2000076E+02  0.7818608E-02  0.1745313E+00
          4   -1    0    0  501    0  0.00000000000E+00  0.00000000000E+00  0.60681378319E+01  0.62320700210E+01  0.14200000000E+01 0. -1.
         -4   -1    0    0    0  501 -0.00000000000E+00 -0.00000000000E+00 -0.16065459837E+02  0.16128093495E+02  0.14200000000E+01 0.  1.
       1023    2    1    2    0    0  0.00000000000E+00  0.00000000000E+00 -0.99973220050E+01  0.22360163516E+02  0.20000761615E+02 0.  0.
        -11    1    3    3    0    0 -0.27183541614E+00  0.99966731224E+01 -0.49810544450E+01  0.11172209793E+02  0.51100000000E-03 0. -1.
         11    1    3    3    0    0  0.27183541614E+00 -0.99966731224E+01 -0.50162675601E+01  0.11187953723E+02  0.51100000000E-03 0.  1.
<mgrwt>
<rscale>  0 0.20000762E+02</rscale>
<asrwt>0</asrwt>
<pdfrwt beam="1">  1        4 0.95098781E-03 0.20000762E+02</pdfrwt>
<pdfrwt beam="2">  1       -4 0.24890373E-02 0.20000762E+02</pdfrwt>
<totfact> 0.12874372E+06</totfact>
</mgrwt>
</event>
<event>
 5    1  0.1167421E-006  0.2000071E+02  0.7818608E-02  0.1745314E+00
         -4   -1    0    0    0  501 -0.00000000000E+00  0.00000000000E+00  0.30871909585E+01  0.33981094765E+01  0.14200000000E+01 0. -1.
          4   -1    0    0  501    0  0.00000000000E+00 -0.00000000000E+00 -0.30512932697E+02  0.30545956554E+02  0.14200000000E+01 0.  1.
       1023    2    1    2    0    0  0.00000000000E+00  0.00000000000E+00 -0.27425741739E+02  0.33944066030E+02  0.20000707706E+02 0.  0.
        -11    1    3    3    0    0 -0.50379289963E+01  0.86385432495E+01 -0.13638527452E+02  0.16911965864E+02  0.51100000000E-03 0. -1.
         11    1    3    3    0    0  0.50379289963E+01 -0.86385432495E+01 -0.13787214286E+02  0.17032100167E+02  0.51100000000E-03 0.  1.
<mgrwt>
<rscale>  0 0.20000708E+02</rscale>
<asrwt>0</asrwt>
<pdfrwt beam="2">  1        4 0.47207543E-02 0.20000708E+02</pdfrwt>
<pdfrwt beam="1">  1       -4 0.50140958E-03 0.20000708E+02</pdfrwt>
<totfact> 0.12253457E+06</totfact>
</mgrwt>
</event>
<event>
 5    1  0.1159952E-006  0.2000063E+02  0.7818608E-02  0.1745316E+00
         -4   -1    0    0    0  501 -0.00000000000E+00  0.00000000000E+00  0.99422712231E+01  0.10043164694E+02  0.14200000000E+01 0. -1.
          4   -1    0    0  501    0  0.00000000000E+00 -0.00000000000E+00 -0.98558845278E+01  0.99576533292E+01  0.14200000000E+01 0.  1.
       1023    2    1    2    0    0  0.00000000000E+00  0.00000000000E+00  0.86386695338E-01  0.20000818023E+02  0.20000631464E+02 0.  0.
        -11    1    3    3    0    0  0.73420817552E+01 -0.67896846125E+01  0.24949360039E-01  0.10000330213E+02  0.51100000000E-03 0.  1.
         11    1    3    3    0    0 -0.73420817552E+01  0.67896846125E+01  0.61437335298E-01  0.10000487810E+02  0.51100000000E-03 0. -1.
<mgrwt>
<rscale>  0 0.20000631E+02</rscale>
<asrwt>0</asrwt>
<pdfrwt beam="2">  1        4 0.15318793E-02 0.20000631E+02</pdfrwt>
<pdfrwt beam="1">  1       -4 0.15451696E-02 0.20000631E+02</pdfrwt>
<totfact> 0.13013157E+06</totfact>
</mgrwt>
</event>
<event>
 5    1  0.1154861E-006  0.2000142E+02  0.7818608E-02  0.1745300E+00
         -4   -1    0    0    0  501 -0.00000000000E+00  0.00000000000E+00  0.27842373435E+02  0.27878560912E+02  0.14200000000E+01 0.  1.
          4   -1    0    0  501    0  0.00000000000E+00 -0.00000000000E+00 -0.34116860383E+01  0.36954027689E+01  0.14200000000E+01 0. -1.
       1023    2    1    2    0    0  0.00000000000E+00  0.00000000000E+00  0.24430687397E+02  0.31573963681E+02  0.20001417345E+02 0.  0.
        -11    1    3    3    0    0  0.85893116270E+01  0.51214806358E+01  0.12071219848E+02  0.15675464491E+02  0.51100000000E-03 0. -1.
         11    1    3    3    0    0 -0.85893116270E+01 -0.51214806358E+01  0.12359467549E+02  0.15898499190E+02  0.51100000000E-03 0.  1.
<mgrwt>
<rscale>  0 0.20001417E+02</rscale>
<asrwt>0</asrwt>
<pdfrwt beam="2">  1        4 0.54948283E-03 0.20001417E+02</pdfrwt>
<pdfrwt beam="1">  1       -4 0.43080498E-02 0.20001417E+02</pdfrwt>
<totfact> 0.12372499E+06</totfact>
</mgrwt>
</event>
<event>
 5    1  0.1154861E-006  0.2000343E+02  0.7818608E-02  0.1745260E+00
          4   -1    0    0  501    0  0.00000000000E+00  0.00000000000E+00  0.17790174754E+02  0.17846756506E+02  0.14200000000E+01 0. -1.
         -4   -1    0    0    0  501 -0.00000000000E+00 -0.00000000000E+00 -0.54666468694E+01  0.56480640926E+01  0.14200000000E+01 0.  1.
       1023    2    1    2    0    0  0.00000000000E+00  0.00000000000E+00  0.12323527885E+02  0.23494820599E+02  0.20003431092E+02 0.  0.
        -11    1    3    3    0    0  0.25972603083E+01  0.96581455519E+01  0.60517265388E+01  0.11689693365E+02  0.51100000000E-03 0. -1.
         11    1    3    3    0    0 -0.25972603083E+01 -0.96581455519E+01  0.62718013460E+01  0.11805127233E+02  0.51100000000E-03 0.  1.
<mgrwt>
<rscale>  0 0.20003431E+02</rscale>
<asrwt>0</asrwt>
<pdfrwt beam="1">  1        4 0.27552576E-02 0.20003431E+02</pdfrwt>
<pdfrwt beam="2">  1       -4 0.85933019E-03 0.20003431E+02</pdfrwt>
<totfact> 0.12805882E+06</totfact>
</mgrwt>
</event>
<event>
 5    1  0.1154861E-006  0.2000145E+02  0.7818608E-02  0.1745299E+00
         -4   -1    0    0    0  501 -0.00000000000E+00  0.00000000000E+00  0.49851086636E+02  0.49871306768E+02  0.14200000000E+01 0.  1.
          4   -1    0    0  501    0  0.00000000000E+00 -0.00000000000E+00 -0.17317065591E+01  0.22394659200E+01  0.14200000000E+01 0. -1.
       1023    2    1    2    0    0  0.00000000000E+00  0.00000000000E+00  0.48119380076E+02  0.52110772688E+02  0.20001447227E+02 0.  0.
        -11    1    3    3    0    0  0.80622061843E+01 -0.59171720232E+01  0.24186771998E+02  0.26172734539E+02  0.51100000000E-03 0. -1.
         11    1    3    3    0    0 -0.80622061843E+01  0.59171720232E+01  0.23932608078E+02  0.25938038149E+02  0.51100000000E-03 0.  1.
<mgrwt>
<rscale>  0 0.20001447E+02</rscale>
<asrwt>0</asrwt>
<pdfrwt beam="2">  1        4 0.30703016E-03 0.20001447E+02</pdfrwt>
<pdfrwt beam="1">  1       -4 0.77100128E-02 0.20001447E+02</pdfrwt>
<totfact> 0.11430683E+06</totfact>
</mgrwt>
</event>
<event>
 4    1  0.1154861E-006  0.2001952E+02  0.7818608E-02  0.1744940E+00
          4   -1    0    0  501    0  0.00000000000E+00  0.00000000000E+00  0.95385744849E+00  0.17106267951E+01  0.14200000000E+01 0.  1.
         -4   -1    0    0    0  501 -0.00000000000E+00 -0.00000000000E+00 -0.74442558027E+02  0.74456100123E+02  0.14200000000E+01 0. -1.
        -11    1    1    2    0    0  0.99406065978E+01 -0.11016779089E+01 -0.35194508314E+02  0.36588014014E+02  0.51100000000E-03 0.  1.
         11    1    1    2    0    0 -0.99406065978E+01  0.11016779089E+01 -0.38294192264E+02  0.39578712904E+02  0.51100000000E-03 0. -1.
<mgrwt>
<rscale>  0 0.20019520E+02</rscale>
<asrwt>0</asrwt>
<pdfrwt beam="1">  1        4 0.20600209E-03 0.20019520E+02</pdfrwt>
<pdfrwt beam="2">  1       -4 0.11511953E-01 0.20019520E+02</pdfrwt>
<totfact> 0.10517697E+06</totfact>
</mgrwt>
</event>
<event>
 5    1  0.1203865E-006  0.2000127E+02  0.7818608E-02  0.1745303E+00
          4   -1    0    0  501    0  0.00000000000E+00  0.00000000000E+00  0.21630964153E+02  0.21677523157E+02  0.14200000000E+01 0.  1.
         -4   -1    0    0    0  501 -0.00000000000E+00 -0.00000000000E+00 -0.44616823222E+01  0.46822013140E+01  0.14200000000E+01 0. -1.
       1023    2    1    2    0    0  0.00000000000E+00  0.00000000000E+00  0.17169281831E+02  0.26359724471E+02  0.20001270849E+02 0.  0.
        -11    1    3    3    0    0 -0.98893637880E+01 -0.14864600682E+01  0.85052493033E+01  0.13128150884E+02  0.51100000000E-03 0.  1.
         11    1    3    3    0    0  0.98893637880E+01  0.14864600682E+01  0.86640325278E+01  0.13231573586E+02  0.51100000000E-03 0. -1.
<mgrwt>
<rscale>  0 0.20001271E+02</rscale>
<asrwt>0</asrwt>
<pdfrwt beam="1">  1        4 0.33483850E-02 0.20001271E+02</pdfrwt>
<pdfrwt beam="2">  1       -4 0.70695715E-03 0.20001271E+02</pdfrwt>
<totfact> 0.12648780E+06</totfact>
</mgrwt>
</event>
<event>
 5    1  0.1154861E-006  0.2000026E+02  0.7818608E-02  0.1745323E+00
          4   -1    0    0  501    0  0.00000000000E+00  0.00000000000E+00  0.23551533025E+02  0.23594302444E+02  0.14200000000E+01 0.  1.
         -4   -1    0    0    0  501 -0.00000000000E+00 -0.00000000000E+00 -0.40793464256E+01  0.43194290433E+01  0.14200000000E+01 0. -1.
       1023    2    1    2    0    0  0.00000000000E+00  0.00000000000E+00  0.19472186599E+02  0.27913731487E+02  0.20000258863E+02 0.  0.
        -11    1    3    3    0    0 -0.74648764318E+01 -0.66540062101E+01  0.96675831782E+01  0.13909074144E+02  0.51100000000E-03 0. -1.
         11    1    3    3    0    0  0.74648764318E+01  0.66540062101E+01  0.98046034210E+01  0.14004657343E+02  0.51100000000E-03 0.  1.
<mgrwt>
<rscale>  0 0.20000259E+02</rscale>
<asrwt>0</asrwt>
<pdfrwt beam="1">  1        4 0.36450706E-02 0.20000259E+02</pdfrwt>
<pdfrwt beam="2">  1       -4 0.64934961E-03 0.20000259E+02</pdfrwt>
<totfact> 0.12565846E+06</totfact>
</mgrwt>
</event>
<event>
 5    1  0.1154861E-006  0.2000027E+02  0.7818608E-02  0.1745323E+00
          4   -1    0    0  501    0  0.00000000000E+00  0.00000000000E+00  0.24886336981E+02  0.24926816249E+02  0.14200000000E+01 0.  1.
         -4   -1    0    0    0  501 -0.00000000000E+00 -0.00000000000E+00 -0.38476976577E+01  0.41013628546E+01  0.14200000000E+01 0. -1.
       1023    2    1    2    0    0  0.00000000000E+00  0.00000000000E+00  0.21038639323E+02  0.29028179104E+02  0.20000270936E+02 0.  0.
        -11    1    3    3    0    0 -0.86612332137E+01 -0.49984905411E+01  0.10561401056E+02  0.14544588719E+02  0.51100000000E-03 0.  1.
         11    1    3    3    0    0  0.86612332137E+01  0.49984905411E+01  0.10477238267E+02  0.14483590385E+02  0.51100000000E-03 0. -1.
<mgrwt>
<rscale>  0 0.20000271E+02</rscale>
<asrwt>0</asrwt>
<pdfrwt beam="1">  1        4 0.38512937E-02 0.20000271E+02</pdfrwt>
<pdfrwt beam="2">  1       -4 0.61457998E-03 0.20000271E+02</pdfrwt>
<totfact> 0.12506469E+06</totfact>
</mgrwt>
</event>
<event>
 5    1  0.1184050E-006  0.2000102E+02  0.7818608E-02  0.1745308E+00
          4   -1    0    0  501    0  0.00000000000E+00  0.00000000000E+00  0.76923606368E+01  0.78223277972E+01  0.14200000000E+01 0.  1.
         -4   -1    0    0    0  501 -0.00000000000E+00 -0.00000000000E+00 -0.12722531117E+02  0.12801531081E+02  0.14200000000E+01 0. -1.
       1023    2    1    2    0    0  0.00000000000E+00  0.00000000000E+00 -0.50301704798E+01  0.20623858878E+02  0.20001023473E+02 0.  0.
        -11    1    3    3    0    0  0.20330577344E+01 -0.97915566372E+01 -0.25648541792E+01  0.10324068111E+02  0.51100000000E-03 0. -1.
         11    1    3    3    0    0 -0.20330577344E+01  0.97915566372E+01 -0.24653163006E+01  0.10299790767E+02  0.51100000000E-03 0.  1.
<mgrwt>
<rscale>  0 0.20001023E+02</rscale>
<asrwt>0</asrwt>
<pdfrwt beam="1">  1        4 0.11995145E-02 0.20001023E+02</pdfrwt>
<pdfrwt beam="2">  1       -4 0.19733869E-02 0.20001023E+02</pdfrwt>
<totfact> 0.12975641E+06</totfact>
</mgrwt>
</event>
<event>
 5    1  0.1154861E-006  0.2000015E+02  0.7818608E-02  0.1745325E+00
          4   -1    0    0  501    0  0.00000000000E+00  0.00000000000E+00  0.49607894627E+01  0.51600224896E+01  0.14200000000E+01 0.  1.
         -4   -1    0    0    0  501 -0.00000000000E+00 -0.00000000000E+00 -0.19536039270E+02  0.19587578471E+02  0.14200000000E+01 0. -1.
       1023    2    1    2    0    0  0.00000000000E+00  0.00000000000E+00 -0.14575249807E+02  0.24747600960E+02  0.20000146158E+02 0.  0.
        -11    1    3    3    0    0  0.13794347357E+01  0.99044719963E+01 -0.72783974679E+01  0.12368365926E+02  0.51100000000E-03 0.  1.
         11    1    3    3    0    0 -0.13794347357E+01 -0.99044719963E+01 -0.72968523389E+01  0.12379235034E+02  0.51100000000E-03 0. -1.
<mgrwt>
<rscale>  0 0.20000146E+02</rscale>
<asrwt>0</asrwt>
<pdfrwt beam="1">  1        4 0.78248856E-03 0.20000146E+02</pdfrwt>
<pdfrwt beam="2">  1       -4 0.30248346E-02 0.20000146E+02</pdfrwt>
<totfact> 0.12739519E+06</totfact>
</mgrwt>
</event>
<event>
 5    1  0.1202307E-006  0.2000115E+02  0.7818608E-02  0.1745305E+00
         -4   -1    0    0    0  501 -0.00000000000E+00  0.00000000000E+00  0.15674379549E+02  0.15738569638E+02  0.14200000000E+01 0. -1.
          4   -1    0    0  501    0  0.00000000000E+00 -0.00000000000E+00 -0.62232020994E+01  0.63831531683E+01  0.14200000000E+01 0.  1.
       1023    2    1    2    0    0  0.00000000000E+00  0.00000000000E+00  0.94511774495E+01  0.22121722806E+02  0.20001146585E+02 0.  0.
        -11    1    3    3    0    0 -0.40600487352E+01 -0.91393350676E+01  0.47310866386E+01  0.11063210305E+02  0.51100000000E-03 0.  1.
         11    1    3    3    0    0  0.40600487352E+01  0.91393350676E+01  0.47200908108E+01  0.11058512501E+02  0.51100000000E-03 0. -1.
<mgrwt>
<rscale>  0 0.20001147E+02</rscale>
<asrwt>0</asrwt>
<pdfrwt beam="2">  1        4 0.97465733E-03 0.20001147E+02</pdfrwt>
<pdfrwt beam="1">  1       -4 0.24286846E-02 0.20001147E+02</pdfrwt>
<totfact> 0.12887658E+06</totfact>
</mgrwt>
</event>
<event>
 5    1  0.1154861E-006  0.2000012E+02  0.7818608E-02  0.1745326E+00
          4   -1    0    0  501    0  0.00000000000E+00  0.00000000000E+00  0.63361292396E+02  0.63377202322E+02  0.14200000000E+01 0. -1.
         -4   -1    0    0    0  501 -0.00000000000E+00 -0.00000000000E+00 -0.12394194013E+01  0.18848237192E+01  0.14200000000E+01 0.  1.
       1023    2    1    2    0    0  0.00000000000E+00  0.00000000000E+00  0.62121872995E+02  0.65262026041E+02  0.20000123464E+02 0.  0.
        -11    1    3    3    0    0 -0.19906181998E+01  0.97998771339E+01  0.30953615222E+02  0.32528855625E+02  0.51100000000E-03 0.  1.
         11    1    3    3    0    0  0.19906181998E+01 -0.97998771339E+01  0.31168257773E+02  0.32733170416E+02  0.51100000000E-03 0. -1.
<mgrwt>
<rscale>  0 0.20000123E+02</rscale>
<asrwt>0</asrwt>
<pdfrwt beam="1">  1        4 0.97987618E-02 0.20000123E+02</pdfrwt>
<pdfrwt beam="2">  1       -4 0.24155023E-03 0.20000123E+02</pdfrwt>
<totfact> 0.10921203E+06</totfact>
</mgrwt>
</event>
<event>
 5    1  0.1154861E-006  0.2000022E+02  0.7818608E-02  0.1745324E+00
          4   -1    0    0  501    0  0.00000000000E+00  0.00000000000E+00  0.30905340751E+00  0.14532425843E+01  0.14200000000E+01 0.  1.
         -4   -1    0    0    0  501 -0.00000000000E+00 -0.00000000000E+00 -0.11233922138E+03  0.11234819563E+03  0.14200000000E+01 0. -1.
       1023    2    1    2    0    0  0.00000000000E+00  0.00000000000E+00 -0.11203016797E+03  0.11380143821E+03  0.20000220065E+02 0.  0.
        -11    1    3    3    0    0 -0.43554539689E+01 -0.90017346923E+01 -0.55835722328E+02  0.56724149133E+02  0.51100000000E-03 0.  1.
         11    1    3    3    0    0  0.43554539689E+01  0.90017346923E+01 -0.56194445647E+02  0.57077289078E+02  0.51100000000E-03 0. -1.
<mgrwt>
<rscale>  0 0.20000220E+02</rscale>
<asrwt>0</asrwt>
<pdfrwt beam="1">  1        4 0.13625165E-03 0.20000220E+02</pdfrwt>
<pdfrwt beam="2">  1       -4 0.17371651E-01 0.20000220E+02</pdfrwt>
<totfact> 0.94246003E+05</totfact>
</mgrwt>
</event>
<event>
 5    1  0.1189263E-006  0.2000109E+02  0.7818608E-02  0.1745306E+00
          4   -1    0    0  501    0  0.00000000000E+00  0.00000000000E+00  0.34187110309E+02  0.34216588247E+02  0.14200000000E+01 0.  1.
         -4   -1    0    0    0  501 -0.00000000000E+00 -0.00000000000E+00 -0.27204301674E+01  0.30687359443E+01  0.14200000000E+01 0. -1.
       1023    2    1    2    0    0  0.00000000000E+00  0.00000000000E+00  0.31466680142E+02  0.37285324192E+02  0.20001085994E+02 0.  0.
        -11    1    3    3    0    0 -0.56864570449E+01 -0.82264676062E+01  0.15765464956E+02  0.18669773661E+02  0.51100000000E-03 0.  1.
         11    1    3    3    0    0  0.56864570449E+01  0.82264676062E+01  0.15701215185E+02  0.18615550531E+02  0.51100000000E-03 0. -1.
<mgrwt>
<rscale>  0 0.20001086E+02</rscale>
<asrwt>0</asrwt>
<pdfrwt beam="1">  1        4 0.52886158E-02 0.20001086E+02</pdfrwt>
<pdfrwt beam="2">  1       -4 0.44758800E-03 0.20001086E+02</pdfrwt>
<totfact> 0.12089555E+06</totfact>
</mgrwt>
</event>
<event>
 5    1  0.1205546E-006  0.2000084E+02  0.7818608E-02  0.1745311E+00
          4   -1    0    0  501    0  0.00000000000E+00  0.00000000000E+00  0.99433683915E+01  0.10044250842E+02  0.14200000000E+01 0.  1.
         -4   -1    0    0    0  501 -0.00000000000E+00 -0.00000000000E+00 -0.98550083228E+01  0.99567860800E+01  0.14200000000E+01 0. -1.
       1023    2    1    2    0    0  0.00000000000E+00  0.00000000000E+00  0.88360068619E-01  0.20001036922E+02  0.20000841743E+02 0.  0.
        -11    1    3    3    0    0 -0.49390375850E+01  0.86955112919E+01  0.93256512628E-01  0.10000735270E+02  0.51100000000E-03 0.  1.
         11    1    3    3    0    0  0.49390375850E+01 -0.86955112919E+01 -0.48964440088E-02  0.10000301652E+02  0.51100000000E-03 0. -1.
<mgrwt>
<rscale>  0 0.20000842E+02</rscale>
<asrwt>0</asrwt>
<pdfrwt beam="1">  1        4 0.15453382E-02 0.20000842E+02</pdfrwt>
<pdfrwt beam="2">  1       -4 0.15317444E-02 0.20000842E+02</pdfrwt>
<totfact> 0.13012865E+06</totfact>
</mgrwt>
</event>
<event>
 5    1  0.1154861E-006  0.2000335E+02  0.7818608E-02  0.1745262E+00
         -4   -1    0    0    0  501 -0.00000000000E+00  0.00000000000E+00  0.76906447906E+00  0.16148870465E+01  0.14200000000E+01 0.  1.
          4   -1    0    0  501    0  0.00000000000E+00 -0.00000000000E+00 -0.83068354567E+02  0.83080490673E+02  0.14200000000E+01 0. -1.
       1023    2    1    2    0    0  0.00000000000E+00  0.00000000000E+00 -0.82299290087E+02  0.84695377719E+02  0.20003346172E+02 0.  0.
        -11    1    3    3    0    0 -0.99864631764E+01  0.54196737849E+00 -0.41579122446E+02  0.42765016065E+02  0.51100000000E-03 0. -1.
         11    1    3    3    0    0  0.99864631764E+01 -0.54196737849E+00 -0.40720167641E+02  0.41930361654E+02  0.51100000000E-03 0.  1.
<mgrwt>
<rscale>  0 0.20003346E+02</rscale>
<asrwt>0</asrwt>
<pdfrwt beam="2">  1        4 0.12845739E-01 0.20003346E+02</pdfrwt>
<pdfrwt beam="1">  1       -4 0.18431450E-03 0.20003346E+02</pdfrwt>
<totfact> 0.10256877E+06</totfact>
</mgrwt>
</event>
<event>
 5    1  0.1154861E-006  0.2000043E+02  0.7818608E-02  0.1745320E+00
          4   -1    0    0  501    0  0.00000000000E+00  0.00000000000E+00  0.56258582796E+02  0.56276500764E+02  0.14200000000E+01 0.  1.
         -4   -1    0    0    0  501 -0.00000000000E+00 -0.00000000000E+00 -0.14728075918E+01  0.20458646589E+01  0.14200000000E+01 0.  1.
       1023    2    1    2    0    0  0.00000000000E+00  0.00000000000E+00  0.54785775204E+02  0.58322365423E+02  0.20000428590E+02 0.  0.
        -11    1    3    3    0    0 -0.96708698614E+01  0.25446107306E+01  0.27219927501E+02  0.28998710679E+02  0.51100000000E-03 0. -1.
         11    1    3    3    0    0  0.96708698614E+01 -0.25446107306E+01  0.27565847703E+02  0.29323654743E+02  0.51100000000E-03 0.  1.
<mgrwt>
<rscale>  0 0.20000429E+02</rscale>
<asrwt>0</asrwt>
<pdfrwt beam="1">  1        4 0.87006250E-02 0.20000429E+02</pdfrwt>
<pdfrwt beam="2">  1       -4 0.27204544E-03 0.20000429E+02</pdfrwt>
<totfact> 0.11183192E+06</totfact>
</mgrwt>
</event>
<event>
 5    1  0.1173309E-006  0.2000128E+02  0.7818608E-02  0.1745303E+00
         -4   -1    0    0    0  501 -0.00000000000E+00  0.00000000000E+00  0.21661543981E+01  0.25901013255E+01  0.14200000000E+01 0.  1.
          4   -1    0    0  501    0  0.00000000000E+00 -0.00000000000E+00 -0.41618126831E+02  0.41642344806E+02  0.14200000000E+01 0. -1.
       1023    2    1    2    0    0  0.00000000000E+00  0.00000000000E+00 -0.39451972433E+02  0.44232446131E+02  0.20001279007E+02 0.  0.
        -11    1    3    3    0    0 -0.17162852908E+01  0.98520785532E+01 -0.19860563512E+02  0.22236255761E+02  0.51100000000E-03 0.  1.
         11    1    3    3    0    0  0.17162852908E+01 -0.98520785532E+01 -0.19591408921E+02  0.21996190370E+02  0.51100000000E-03 0. -1.
<mgrwt>
<rscale>  0 0.20001279E+02</rscale>
<asrwt>0</asrwt>
<pdfrwt beam="2">  1        4 0.64372624E-02 0.20001279E+02</pdfrwt>
<pdfrwt beam="1">  1       -4 0.36772878E-03 0.20001279E+02</pdfrwt>
<totfact> 0.11768361E+06</totfact>
</mgrwt>
</event>
<event>
 5    1  0.1154861E-006  0.2000020E+02  0.7818608E-02  0.1745324E+00
          4   -1    0    0  501    0  0.00000000000E+00  0.00000000000E+00  0.35740328349E+02  0.35768526256E+02  0.14200000000E+01 0.  1.
         -4   -1    0    0    0  501 -0.00000000000E+00 -0.00000000000E+00 -0.25865693587E+01  0.29507187340E+01  0.14200000000E+01 0. -1.
       1023    2    1    2    0    0  0.00000000000E+00  0.00000000000E+00  0.33153758991E+02  0.38719244990E+02  0.20000204933E+02 0.  0.
        -11    1    3    3    0    0 -0.71632187953E+01 -0.69778424125E+01  0.16591979711E+02  0.19372552213E+02  0.51100000000E-03 0. -1.
         11    1    3    3    0    0  0.71632187953E+01  0.69778424125E+01  0.16561779280E+02  0.19346692777E+02  0.51100000000E-03 0.  1.
<mgrwt>
<rscale>  0 0.20000205E+02</rscale>
<asrwt>0</asrwt>
<pdfrwt beam="1">  1        4 0.55286926E-02 0.20000205E+02</pdfrwt>
<pdfrwt beam="2">  1       -4 0.42811431E-03 0.20000205E+02</pdfrwt>
<totfact> 0.12022394E+06</totfact>
</mgrwt>
</event>
<event>
 5    1  0.1154861E-006  0.2000343E+02  0.7818608E-02  0.1745260E+00
          4   -1    0    0  501    0  0.00000000000E+00  0.00000000000E+00  0.62438578664E+01  0.64032929853E+01  0.14200000000E+01 0. -1.
         -4   -1    0    0    0  501 -0.00000000000E+00 -0.00000000000E+00 -0.15627235446E+02  0.15691618389E+02  0.14200000000E+01 0.  1.
       1023    2    1    2    0    0  0.00000000000E+00  0.00000000000E+00 -0.93833775794E+01  0.22094911375E+02  0.20003433052E+02 0.  0.
        -11    1    3    3    0    0 -0.70030789150E+01 -0.71408032860E+01 -0.47050964621E+01  0.11053149725E+02  0.51100000000E-03 0. -1.
         11    1    3    3    0    0  0.70030789150E+01  0.71408032860E+01 -0.46782811173E+01  0.11041761650E+02  0.51100000000E-03 0.  1.
<mgrwt>
<rscale>  0 0.20003433E+02</rscale>
<asrwt>0</asrwt>
<pdfrwt beam="1">  1        4 0.97781030E-03 0.20003433E+02</pdfrwt>
<pdfrwt beam="2">  1       -4 0.24214068E-02 0.20003433E+02</pdfrwt>
<totfact> 0.12886207E+06</totfact>
</mgrwt>
</event>
<event>
 5    1  0.1190305E-006  0.2000075E+02  0.7818608E-02  0.1745313E+00
         -4   -1    0    0    0  501 -0.00000000000E+00  0.00000000000E+00  0.19403898908E+02  0.19455788157E+02  0.14200000000E+01 0.  1.
          4   -1    0    0  501    0  0.00000000000E+00 -0.00000000000E+00 -0.49961499760E+01  0.51940268176E+01  0.14200000000E+01 0. -1.
       1023    2    1    2    0    0  0.00000000000E+00  0.00000000000E+00  0.14407748932E+02  0.24649814975E+02  0.20000753711E+02 0.  0.
        -11    1    3    3    0    0 -0.53412999856E+01  0.84542311253E+01  0.72820889415E+01  0.12370623633E+02  0.51100000000E-03 0. -1.
         11    1    3    3    0    0  0.53412999856E+01 -0.84542311253E+01  0.71256599904E+01  0.12279191342E+02  0.51100000000E-03 0.  1.
<mgrwt>
<rscale>  0 0.20000754E+02</rscale>
<asrwt>0</asrwt>
<pdfrwt beam="2">  1        4 0.78785124E-03 0.20000754E+02</pdfrwt>
<pdfrwt beam="1">  1       -4 0.30044280E-02 0.20000754E+02</pdfrwt>
<totfact> 0.12744211E+06</totfact>
</mgrwt>
</event>
<event>
 5    1  0.1154861E-006  0.2000705E+02  0.7818608E-02  0.1745188E+00
         -4   -1    0    0    0  501 -0.00000000000E+00  0.00000000000E+00  0.65448473226E+02  0.65463875898E+02  0.14200000000E+01 0.  1.
          4   -1    0    0  501    0  0.00000000000E+00 -0.00000000000E+00 -0.11802788875E+01  0.18464718390E+01  0.14200000000E+01 0. -1.
       1023    2    1    2    0    0  0.00000000000E+00  0.00000000000E+00  0.64268194339E+02  0.67310347737E+02  0.20007051481E+02 0.  0.
        -11    1    3    3    0    0 -0.68065038419E+01 -0.73299311218E+01  0.31734007846E+02  0.33273166952E+02  0.51100000000E-03 0. -1.
         11    1    3    3    0    0  0.68065038419E+01  0.73299311218E+01  0.32534186493E+02  0.34037180785E+02  0.51100000000E-03 0.  1.
<mgrwt>
<rscale>  0 0.20007051E+02</rscale>
<asrwt>0</asrwt>
<pdfrwt beam="2">  1        4 0.23401176E-03 0.20007051E+02</pdfrwt>
<pdfrwt beam="1">  1       -4 0.10121428E-01 0.20007051E+02</pdfrwt>
<totfact> 0.10839120E+06</totfact>
</mgrwt>
</event>
<event>
 5    1  0.1154861E-006  0.2000197E+02  0.7818608E-02  0.1745289E+00
         -4   -1    0    0    0  501 -0.00000000000E+00  0.00000000000E+00  0.40706778940E+01  0.43112432681E+01  0.14200000000E+01 0.  1.
          4   -1    0    0  501    0  0.00000000000E+00 -0.00000000000E+00 -0.23603069518E+02  0.23645745720E+02  0.14200000000E+01 0. -1.
       1023    2    1    2    0    0  0.00000000000E+00  0.00000000000E+00 -0.19532391624E+02  0.27956988988E+02  0.20001972671E+02 0.  0.
        -11    1    3    3    0    0  0.82006075161E+01 -0.57240713060E+01 -0.98627439604E+01  0.14045948691E+02  0.51100000000E-03 0. -1.
         11    1    3    3    0    0 -0.82006075161E+01  0.57240713060E+01 -0.96696476632E+01  0.13911040297E+02  0.51100000000E-03 0.  1.
<mgrwt>
<rscale>  0 0.20001973E+02</rscale>
<asrwt>0</asrwt>
<pdfrwt beam="2">  1        4 0.36530292E-02 0.20001973E+02</pdfrwt>
<pdfrwt beam="1">  1       -4 0.64804597E-03 0.20001973E+02</pdfrwt>
<totfact> 0.12561336E+06</totfact>
</mgrwt>
</event>
<event>
 5    1  0.1154861E-006  0.2000949E+02  0.7818608E-02  0.1745139E+00
         -4   -1    0    0    0  501 -0.00000000000E+00  0.00000000000E+00  0.45176250224E+02  0.45198561750E+02  0.14200000000E+01 0.  1.
          4   -1    0    0  501    0  0.00000000000E+00 -0.00000000000E+00 -0.19628434349E+01  0.24226337630E+01  0.14200000000E+01 0. -1.
       1023    2    1    2    0    0  0.00000000000E+00  0.00000000000E+00  0.43213406789E+02  0.47621195514E+02  0.20009491143E+02 0.  0.
        -11    1    3    3    0    0  0.94374399460E+01  0.33112105957E+01  0.22216009009E+02  0.24363506416E+02  0.51100000000E-03 0.  1.
         11    1    3    3    0    0 -0.94374399460E+01 -0.33112105957E+01  0.20997397780E+02  0.23257689097E+02  0.51100000000E-03 0. -1.
<mgrwt>
<rscale>  0 0.20009491E+02</rscale>
<asrwt>0</asrwt>
<pdfrwt beam="2">  1        4 0.33906070E-03 0.20009491E+02</pdfrwt>
<pdfrwt beam="1">  1       -4 0.69872766E-02 0.20009491E+02</pdfrwt>
<totfact> 0.11610312E+06</totfact>
</mgrwt>
</event>
<event>
 5    1  0.1154861E-006  0.2000030E+02  0.7818608E-02  0.1745322E+00
         -4   -1    0    0    0  501 -0.00000000000E+00  0.00000000000E+00  0.14772634971E+01  0.20490747765E+01  0.14200000000E+01 0. -1.
          4   -1    0    0  501    0  0.00000000000E+00 -0.00000000000E+00 -0.56135510483E+02  0.56153467722E+02  0.14200000000E+01 0.  1.
       1023    2    1    2    0    0  0.00000000000E+00  0.00000000000E+00 -0.54658246986E+02  0.58202542498E+02  0.20000299740E+02 0.  0.
        -11    1    3    3    0    0  0.60676477700E+01  0.79488412126E+01 -0.27181565300E+02  0.28962698744E+02  0.51100000000E-03 0. -1.
         11    1    3    3    0    0 -0.60676477700E+01 -0.79488412126E+01 -0.27476681685E+02  0.29239843754E+02  0.51100000000E-03 0.  1.
<mgrwt>
<rscale>  0 0.20000300E+02</rscale>
<asrwt>0</asrwt>
<pdfrwt beam="2">  1        4 0.86815978E-02 0.20000300E+02</pdfrwt>
<pdfrwt beam="1">  1       -4 0.27263816E-03 0.20000300E+02</pdfrwt>
<totfact> 0.11188002E+06</totfact>
</mgrwt>
</event>
<event>
 5    1  0.1154861E-006  0.2000023E+02  0.7818608E-02  0.1745323E+00
         -4   -1    0    0    0  501 -0.00000000000E+00  0.00000000000E+00  0.33977488732E+01  0.36825395320E+01  0.14200000000E+01 0.  1.
          4   -1    0    0  501    0  0.00000000000E+00 -0.00000000000E+00 -0.27944548205E+02  0.27980603538E+02  0.14200000000E+01 0. -1.
       1023    2    1    2    0    0  0.00000000000E+00  0.00000000000E+00 -0.24546799331E+02  0.31663143070E+02  0.20000231790E+02 0.  0.
        -11    1    3    3    0    0  0.99936517049E+01 -0.35694216229E+00 -0.12205572744E+02  0.15778988826E+02  0.51100000000E-03 0. -1.
         11    1    3    3    0    0 -0.99936517049E+01  0.35694216229E+00 -0.12341226587E+02  0.15884154244E+02  0.51100000000E-03 0.  1.
<mgrwt>
<rscale>  0 0.20000232E+02</rscale>
<asrwt>0</asrwt>
<pdfrwt beam="2">  1        4 0.43238416E-02 0.20000232E+02</pdfrwt>
<pdfrwt beam="1">  1       -4 0.54741108E-03 0.20000232E+02</pdfrwt>
<totfact> 0.12369413E+06</totfact>
</mgrwt>
</event>
<event>
 5    1  0.1154861E-006  0.2000125E+02  0.7818608E-02  0.1745303E+00
          4   -1    0    0  501    0  0.00000000000E+00  0.00000000000E+00  0.47053296076E+02  0.47074717967E+02  0.14200000000E+01 0. -1.
         -4   -1    0    0    0  501 -0.00000000000E+00 -0.00000000000E+00 -0.18639120439E+01  0.23431961308E+01  0.14200000000E+01 0.  1.
       1023    2    1    2    0    0  0.00000000000E+00  0.00000000000E+00  0.45189384032E+02  0.49417914098E+02  0.20001245074E+02 0.  0.
        -11    1    3    3    0    0  0.76357452106E+01  0.64581259899E+01  0.22647374288E+02  0.24757131470E+02  0.51100000000E-03 0. -1.
         11    1    3    3    0    0 -0.76357452106E+01 -0.64581259899E+01  0.22542009744E+02  0.24660782628E+02  0.51100000000E-03 0.  1.
<mgrwt>
<rscale>  0 0.20001245E+02</rscale>
<asrwt>0</asrwt>
<pdfrwt beam="1">  1        4 0.72774839E-02 0.20001245E+02</pdfrwt>
<pdfrwt beam="2">  1       -4 0.32527157E-03 0.20001245E+02</pdfrwt>
<totfact> 0.11543316E+06</totfact>
</mgrwt>
</event>
<event>
 5    1  0.1202530E-006  0.2000094E+02  0.7818608E-02  0.1745309E+00
          4   -1    0    0  501    0  0.00000000000E+00  0.00000000000E+00  0.89435334321E+01  0.90555612886E+01  0.14200000000E+01 0.  1.
         -4   -1    0    0    0  501 -0.00000000000E+00 -0.00000000000E+00 -0.10954570713E+02  0.11046221956E+02  0.14200000000E+01 0. -1.
       1023    2    1    2    0    0  0.00000000000E+00  0.00000000000E+00 -0.20110372810E+01  0.20101783245E+02  0.20000935445E+02 0.  0.
        -11    1    3    3    0    0  0.84357495904E+01  0.53706842881E+01 -0.94836774837E+00  0.10045174091E+02  0.51100000000E-03 0. -1.
         11    1    3    3    0    0 -0.84357495904E+01 -0.53706842881E+01 -0.10626695326E+01  0.10056609154E+02  0.51100000000E-03 0.  1.
<mgrwt>
<rscale>  0 0.20000935E+02</rscale>
<asrwt>0</asrwt>
<pdfrwt beam="1">  1        4 0.13915958E-02 0.20000935E+02</pdfrwt>
<pdfrwt beam="2">  1       -4 0.17009862E-02 0.20000935E+02</pdfrwt>
<totfact> 0.13006764E+06</totfact>
</mgrwt>
</event>
<event>
 5    1  0.1154861E-006  0.2000056E+02  0.7818608E-02  0.1745317E+00
          4   -1    0    0  501    0  0.00000000000E+00  0.00000000000E+00  0.31924980251E+02  0.31956544933E+02  0.14200000000E+01 0. -1.
         -4   -1    0    0    0  501 -0.00000000000E+00 -0.00000000000E+00 -0.29366778324E+01  0.32619743548E+01  0.14200000000E+01 0.  1.
       1023    2    1    2    0    0  0.00000000000E+00  0.00000000000E+00  0.28988302419E+02  0.35218519288E+02  0.20000560584E+02 0.  0.
        -11    1    3    3    0    0 -0.86112006832E+01 -0.50843069912E+01  0.14403489609E+02  0.17534636237E+02  0.51100000000E-03 0. -1.
         11    1    3    3    0    0  0.86112006832E+01  0.50843069912E+01  0.14584812810E+02  0.17683883051E+02  0.51100000000E-03 0.  1.
<mgrwt>
<rscale>  0 0.20000561E+02</rscale>
<asrwt>0</asrwt>
<pdfrwt beam="1">  1        4 0.49389864E-02 0.20000561E+02</pdfrwt>
<pdfrwt beam="2">  1       -4 0.47924745E-03 0.20000561E+02</pdfrwt>
<totfact> 0.12190544E+06</totfact>
</mgrwt>
</event>
<event>
 5    1  0.1160781E-006  0.2000129E+02  0.7818608E-02  0.1745302E+00
         -4   -1    0    0    0  501 -0.00000000000E+00  0.00000000000E+00  0.57038729971E+02  0.57056402942E+02  0.14200000000E+01 0. -1.
          4   -1    0    0  501    0  0.00000000000E+00 -0.00000000000E+00 -0.14449567450E+01  0.20259072029E+01  0.14200000000E+01 0.  1.
       1023    2    1    2    0    0  0.00000000000E+00  0.00000000000E+00  0.55593773226E+02  0.59082310145E+02  0.20001293723E+02 0.  0.
        -11    1    3    3    0    0  0.15204082499E+01 -0.98843954847E+01  0.27810753910E+02  0.29554203570E+02  0.51100000000E-03 0. -1.
         11    1    3    3    0    0 -0.15204082499E+01  0.98843954847E+01  0.27783019316E+02  0.29528106575E+02  0.51100000000E-03 0.  1.
<mgrwt>
<rscale>  0 0.20001294E+02</rscale>
<asrwt>0</asrwt>
<pdfrwt beam="2">  1        4 0.26834902E-03 0.20001294E+02</pdfrwt>
<pdfrwt beam="1">  1       -4 0.88212364E-02 0.20001294E+02</pdfrwt>
<totfact> 0.11152751E+06</totfact>
</mgrwt>
</event>
<event>
 5    1  0.1154861E-006  0.2000038E+02  0.7818608E-02  0.1745321E+00
         -4   -1    0    0    0  501 -0.00000000000E+00  0.00000000000E+00  0.28133070427E+02  0.28168884459E+02  0.14200000000E+01 0. -1.
          4   -1    0    0  501    0  0.00000000000E+00 -0.00000000000E+00 -0.33731505979E+01  0.36598558655E+01  0.14200000000E+01 0.  1.
       1023    2    1    2    0    0  0.00000000000E+00  0.00000000000E+00  0.24759919829E+02  0.31828740324E+02  0.20000377014E+02 0.  0.
        -11    1    3    3    0    0  0.34404350334E+01 -0.93896867907E+01  0.12330686263E+02  0.15876039658E+02  0.51100000000E-03 0.  1.
         11    1    3    3    0    0 -0.34404350334E+01  0.93896867907E+01  0.12429233566E+02  0.15952700666E+02  0.51100000000E-03 0. -1.
<mgrwt>
<rscale>  0 0.20000377E+02</rscale>
<asrwt>0</asrwt>
<pdfrwt beam="2">  1        4 0.54375540E-03 0.20000377E+02</pdfrwt>
<pdfrwt beam="1">  1       -4 0.43529740E-02 0.20000377E+02</pdfrwt>
<totfact> 0.12360747E+06</totfact>
</mgrwt>
</event>
<event>
 5    1  0.1154861E-006  0.2000052E+02  0.7818608E-02  0.1745318E+00
          4   -1    0    0  501    0  0.00000000000E+00  0.00000000000E+00  0.42612720650E+01  0.44916410823E+01  0.14200000000E+01 0. -1.
         -4   -1    0    0    0  501 -0.00000000000E+00 -0.00000000000E+00 -0.22597473153E+02  0.22642044803E+02  0.14200000000E+01 0.  1.
       1023    2    1    2    0    0  0.00000000000E+00  0.00000000000E+00 -0.18336201088E+02  0.27133685886E+02  0.20000515979E+02 0.  0.
        -11    1    3    3    0    0  0.35057960258E+01 -0.93655814440E+01 -0.91964942113E+01  0.13586030605E+02  0.51100000000E-03 0.  1.
         11    1    3    3    0    0 -0.35057960258E+01  0.93655814440E+01 -0.91397068763E+01  0.13547655281E+02  0.51100000000E-03 0. -1.
<mgrwt>
<rscale>  0 0.20000516E+02</rscale>
<asrwt>0</asrwt>
<pdfrwt beam="1">  1        4 0.67672961E-03 0.20000516E+02</pdfrwt>
<pdfrwt beam="2">  1       -4 0.34976835E-02 0.20000516E+02</pdfrwt>
<totfact> 0.12607581E+06</totfact>
</mgrwt>
</event>
<event>
 5    1  0.1154861E-006  0.2000193E+02  0.7818608E-02  0.1745290E+00
         -4   -1    0    0    0  501 -0.00000000000E+00  0.00000000000E+00  0.76544124135E+02  0.76557294489E+02  0.14200000000E+01 0. -1.
          4   -1    0    0  501    0  0.00000000000E+00 -0.00000000000E+00 -0.90361624148E+00  0.16831287271E+01  0.14200000000E+01 0.  1.
       1023    2    1    2    0    0  0.00000000000E+00  0.00000000000E+00  0.75640507893E+02  0.78240423217E+02  0.20001934675E+02 0.  0.
        -11    1    3    3    0    0  0.62672735470E+01  0.77935139041E+01  0.37655651285E+02  0.38961078664E+02  0.51100000000E-03 0. -1.
         11    1    3    3    0    0 -0.62672735470E+01 -0.77935139041E+01  0.37984856608E+02  0.39279344552E+02  0.51100000000E-03 0.  1.
<mgrwt>
<rscale>  0 0.20001935E+02</rscale>
<asrwt>0</asrwt>
<pdfrwt beam="2">  1        4 0.19999340E-03 0.20001935E+02</pdfrwt>
<pdfrwt beam="1">  1       -4 0.11837000E-01 0.20001935E+02</pdfrwt>
<totfact> 0.10467025E+06</totfact>
</mgrwt>
</event>
<event>
 5    1  0.1154861E-006  0.2000019E+02  0.7818608E-02  0.1745324E+00
         -4   -1    0    0    0  501 -0.00000000000E+00  0.00000000000E+00  0.90830792947E+01  0.91934068481E+01  0.14200000000E+01 0.  1.
          4   -1    0    0  501    0  0.00000000000E+00 -0.00000000000E+00 -0.10786087769E+02  0.10879158486E+02  0.14200000000E+01 0. -1.
       1023    2    1    2    0    0  0.00000000000E+00  0.00000000000E+00 -0.17030084746E+01  0.20072565334E+02  0.20000191030E+02 0.  0.
        -11    1    3    3    0    0 -0.86675304376E+01 -0.49875180115E+01 -0.82928260055E+00  0.10034397326E+02  0.51100000000E-03 0. -1.
         11    1    3    3    0    0  0.86675304376E+01  0.49875180115E+01 -0.87372587401E+00  0.10038168008E+02  0.51100000000E-03 0.  1.
<mgrwt>
<rscale>  0 0.20000191E+02</rscale>
<asrwt>0</asrwt>
<pdfrwt beam="2">  1        4 0.16750441E-02 0.20000191E+02</pdfrwt>
<pdfrwt beam="1">  1       -4 0.14130428E-02 0.20000191E+02</pdfrwt>
<totfact> 0.13009485E+06</totfact>
</mgrwt>
</event>
<event>
 5    1  0.1154861E-006  0.2000105E+02  0.7818608E-02  0.1745307E+00
          4   -1    0    0  501    0  0.00000000000E+00  0.00000000000E+00  0.14744117184E+01  0.20470197643E+01  0.14200000000E+01 0. -1.
         -4   -1    0    0    0  501 -0.00000000000E+00 -0.00000000000E+00 -0.56218006152E+02  0.56235937049E+02  0.14200000000E+01 0.  1.
       1023    2    1    2    0    0  0.00000000000E+00  0.00000000000E+00 -0.54743594434E+02  0.58282956813E+02  0.20001048055E+02 0.  0.
        -11    1    3    3    0    0 -0.72982544985E+01  0.68367659758E+01 -0.27174314422E+02  0.28955988194E+02  0.51100000000E-03 0. -1.
         11    1    3    3    0    0  0.72982544985E+01 -0.68367659758E+01 -0.27569280012E+02  0.29326968618E+02  0.51100000000E-03 0.  1.
<mgrwt>
<rscale>  0 0.20001048E+02</rscale>
<asrwt>0</asrwt>
<pdfrwt beam="1">  1        4 0.27225869E-03 0.20001048E+02</pdfrwt>
<pdfrwt beam="2">  1       -4 0.86943487E-02 0.20001048E+02</pdfrwt>
<totfact> 0.11184029E+06</totfact>
</mgrwt>
</event>
<event>
 5    1  0.1154861E-006  0.2000371E+02  0.7818608E-02  0.1745254E+00
         -4   -1    0    0    0  501 -0.00000000000E+00  0.00000000000E+00  0.11493817183E+03  0.11494694317E+03  0.14200000000E+01 0. -1.
          4   -1    0    0  501    0  0.00000000000E+00 -0.00000000000E+00 -0.27640595587E+00  0.14466513929E+01  0.14200000000E+01 0.  1.
       1023    2    1    2    0    0  0.00000000000E+00  0.00000000000E+00  0.11466176588E+03  0.11639359456E+03  0.20003707191E+02 0.  0.
        -11    1    3    3    0    0 -0.90039020463E+01  0.43519291000E+01  0.56365343350E+02  0.57245624026E+02  0.51100000000E-03 0. -1.
         11    1    3    3    0    0  0.90039020463E+01 -0.43519291000E+01  0.58296422528E+02  0.59147970538E+02  0.51100000000E-03 0.  1.
<mgrwt>
<rscale>  0 0.20003707E+02</rscale>
<asrwt>0</asrwt>
<pdfrwt beam="2">  1        4 0.13321771E-03 0.20003707E+02</pdfrwt>
<pdfrwt beam="1">  1       -4 0.17773474E-01 0.20003707E+02</pdfrwt>
<totfact> 0.93541507E+05</totfact>
</mgrwt>
</event>
<event>
 5    1  0.1217864E-006  0.2000208E+02  0.7818608E-02  0.1745287E+00
          4   -1    0    0  501    0  0.00000000000E+00  0.00000000000E+00  0.19694649733E+02  0.19745774943E+02  0.14200000000E+01 0. -1.
         -4   -1    0    0    0  501 -0.00000000000E+00 -0.00000000000E+00 -0.49203334159E+01  0.51211405882E+01  0.14200000000E+01 0.  1.
       1023    2    1    2    0    0  0.00000000000E+00  0.00000000000E+00  0.14774316317E+02  0.24866915531E+02  0.20002076527E+02 0.  0.
        -11    1    3    3    0    0  0.99049962913E+01  0.13760669573E+01  0.75551272047E+01  0.12533254132E+02  0.51100000000E-03 0.  1.
         11    1    3    3    0    0 -0.99049962913E+01 -0.13760669573E+01  0.72191891120E+01  0.12333661399E+02  0.51100000000E-03 0. -1.
<mgrwt>
<rscale>  0 0.20002077E+02</rscale>
<asrwt>0</asrwt>
<pdfrwt beam="1">  1        4 0.30493255E-02 0.20002077E+02</pdfrwt>
<pdfrwt beam="2">  1       -4 0.77635380E-03 0.20002077E+02</pdfrwt>
<totfact> 0.12730339E+06</totfact>
</mgrwt>
</event>
<event>
 5    1  0.1184576E-006  0.2000074E+02  0.7818608E-02  0.1745313E+00
          4   -1    0    0  501    0  0.00000000000E+00  0.00000000000E+00  0.15884743040E+02  0.15948086451E+02  0.14200000000E+01 0. -1.
         -4   -1    0    0    0  501 -0.00000000000E+00 -0.00000000000E+00 -0.61387320236E+01  0.63008277915E+01  0.14200000000E+01 0.  1.
       1023    2    1    2    0    0  0.00000000000E+00  0.00000000000E+00  0.97460110160E+01  0.22248914242E+02  0.20000736342E+02 0.  0.
        -11    1    3    3    0    0 -0.97775522679E+01 -0.20985835675E+01  0.48143325793E+01  0.11098755777E+02  0.51100000000E-03 0.  1.
         11    1    3    3    0    0  0.97775522679E+01  0.20985835675E+01  0.49316784367E+01  0.11150158466E+02  0.51100000000E-03 0. -1.
<mgrwt>
<rscale>  0 0.20000736E+02</rscale>
<asrwt>0</asrwt>
<pdfrwt beam="1">  1        4 0.24611481E-02 0.20000736E+02</pdfrwt>
<pdfrwt beam="2">  1       -4 0.96176179E-03 0.20000736E+02</pdfrwt>
<totfact> 0.12880835E+06</totfact>
</mgrwt>
</event>
<event>
 5    1  0.1154861E-006  0.2000019E+02  0.7818608E-02  0.1745324E+00
          4   -1    0    0  501    0  0.00000000000E+00  0.00000000000E+00  0.41161946783E+02  0.41186432996E+02  0.14200000000E+01 0. -1.
         -4   -1    0    0    0  501 -0.00000000000E+00 -0.00000000000E+00 -0.21945286723E+01  0.26138775973E+01  0.14200000000E+01 0.  1.
       1023    2    1    2    0    0  0.00000000000E+00  0.00000000000E+00  0.38967418111E+02  0.43800310594E+02  0.20000188346E+02 0.  0.
        -11    1    3    3    0    0 -0.81696176553E+01 -0.57670393804E+01  0.19435362047E+02  0.21857142860E+02  0.51100000000E-03 0.  1.
         11    1    3    3    0    0  0.81696176553E+01  0.57670393804E+01  0.19532056064E+02  0.21943167733E+02  0.51100000000E-03 0. -1.
<mgrwt>
<rscale>  0 0.20000188E+02</rscale>
<asrwt>0</asrwt>
<pdfrwt beam="1">  1        4 0.63667481E-02 0.20000188E+02</pdfrwt>
<pdfrwt beam="2">  1       -4 0.37176097E-03 0.20000188E+02</pdfrwt>
<totfact> 0.11788962E+06</totfact>
</mgrwt>
</event>
<event>
 5    1  0.1187514E-006  0.2000077E+02  0.7818608E-02  0.1745313E+00
          4   -1    0    0  501    0  0.00000000000E+00  0.00000000000E+00  0.15908069624E+02  0.15971320520E+02  0.14200000000E+01 0.  1.
         -4   -1    0    0    0  501 -0.00000000000E+00 -0.00000000000E+00 -0.61295528031E+01  0.62918850566E+01  0.14200000000E+01 0. -1.
       1023    2    1    2    0    0  0.00000000000E+00  0.00000000000E+00  0.97785168209E+01  0.22263205577E+02  0.20000773269E+02 0.  0.
        -11    1    3    3    0    0 -0.96841113769E+01 -0.24941288518E+01  0.49682872618E+01  0.11166314095E+02  0.51100000000E-03 0. -1.
         11    1    3    3    0    0  0.96841113769E+01  0.24941288518E+01  0.48102295591E+01  0.11096891482E+02  0.51100000000E-03 0.  1.
<mgrwt>
<rscale>  0 0.20000773E+02</rscale>
<asrwt>0</asrwt>
<pdfrwt beam="1">  1        4 0.24647478E-02 0.20000773E+02</pdfrwt>
<pdfrwt beam="2">  1       -4 0.96036069E-03 0.20000773E+02</pdfrwt>
<totfact> 0.12879960E+06</totfact>
</mgrwt>
</event>
<event>
 5    1  0.1154861E-006  0.2000033E+02  0.7818608E-02  0.1745322E+00
         -4   -1    0    0    0  501 -0.00000000000E+00  0.00000000000E+00  0.19068727107E+02  0.19121525919E+02  0.14200000000E+01 0. -1.
          4   -1    0    0  501    0  0.00000000000E+00 -0.00000000000E+00 -0.50869401979E+01  0.52814165312E+01  0.14200000000E+01 0.  1.
       1023    2    1    2    0    0  0.00000000000E+00  0.00000000000E+00  0.13981786909E+02  0.24402942450E+02  0.20000330874E+02 0.  0.
        -11    1    3    3    0    0 -0.99284403694E+01 -0.11949074173E+01  0.70393403566E+01  0.12229229118E+02  0.51100000000E-03 0.  1.
         11    1    3    3    0    0  0.99284403694E+01  0.11949074173E+01  0.69424465524E+01  0.12173713332E+02  0.51100000000E-03 0. -1.
<mgrwt>
<rscale>  0 0.20000331E+02</rscale>
<asrwt>0</asrwt>
<pdfrwt beam="2">  1        4 0.80162736E-03 0.20000331E+02</pdfrwt>
<pdfrwt beam="1">  1       -4 0.29526715E-02 0.20000331E+02</pdfrwt>
<totfact> 0.12758629E+06</totfact>
</mgrwt>
</event>
<event>
 5    1  0.1155154E-006  0.2000070E+02  0.7818608E-02  0.1745314E+00
          4   -1    0    0  501    0  0.00000000000E+00  0.00000000000E+00  0.41392552144E+01  0.43760522997E+01  0.14200000000E+01 0. -1.
         -4   -1    0    0    0  501 -0.00000000000E+00 -0.00000000000E+00 -0.23229685723E+02  0.23273046616E+02  0.14200000000E+01 0.  1.
       1023    2    1    2    0    0  0.00000000000E+00  0.00000000000E+00 -0.19090430508E+02  0.27649098915E+02  0.20000703334E+02 0.  0.
        -11    1    3    3    0    0  0.45379032357E+01 -0.89114792875E+01 -0.95480923026E+01  0.13826535927E+02  0.51100000000E-03 0.  1.
         11    1    3    3    0    0 -0.45379032357E+01  0.89114792875E+01 -0.95423382058E+01  0.13822562988E+02  0.51100000000E-03 0. -1.
<mgrwt>
<rscale>  0 0.20000703E+02</rscale>
<asrwt>0</asrwt>
<pdfrwt beam="1">  1        4 0.65835912E-03 0.20000703E+02</pdfrwt>
<pdfrwt beam="2">  1       -4 0.35953484E-02 0.20000703E+02</pdfrwt>
<totfact> 0.12579501E+06</totfact>
</mgrwt>
</event>
<event>
 5    1  0.1154861E-006  0.2000133E+02  0.7818608E-02  0.1745302E+00
         -4   -1    0    0    0  501 -0.00000000000E+00  0.00000000000E+00  0.11224281862E+01  0.18100400640E+01  0.14200000000E+01 0. -1.
          4   -1    0    0  501    0  0.00000000000E+00 -0.00000000000E+00 -0.67514158393E+02  0.67529089906E+02  0.14200000000E+01 0.  1.
       1023    2    1    2    0    0  0.00000000000E+00  0.00000000000E+00 -0.66391730207E+02  0.69339129970E+02  0.20001327584E+02 0.  0.
        -11    1    3    3    0    0 -0.74138828789E+01  0.67107952102E+01 -0.33588758887E+02  0.35045758025E+02  0.51100000000E-03 0. -1.
         11    1    3    3    0    0  0.74138828789E+01 -0.67107952102E+01 -0.32802971320E+02  0.34293371945E+02  0.51100000000E-03 0.  1.
<mgrwt>
<rscale>  0 0.20001328E+02</rscale>
<asrwt>0</asrwt>
<pdfrwt beam="2">  1        4 0.10440833E-01 0.20001328E+02</pdfrwt>
<pdfrwt beam="1">  1       -4 0.22672311E-03 0.20001328E+02</pdfrwt>
<totfact> 0.10772758E+06</totfact>
</mgrwt>
</event>
<event>
 5    1  0.1154861E-006  0.2000010E+02  0.7818608E-02  0.1745326E+00
         -4   -1    0    0    0  501 -0.00000000000E+00  0.00000000000E+00  0.11744622650E+02  0.11830154741E+02  0.14200000000E+01 0. -1.
          4   -1    0    0  501    0  0.00000000000E+00 -0.00000000000E+00 -0.83379495840E+01  0.84580023212E+01  0.14200000000E+01 0.  1.
       1023    2    1    2    0    0  0.00000000000E+00  0.00000000000E+00  0.34066730660E+01  0.20288157062E+02  0.20000097390E+02 0.  0.
        -11    1    3    3    0    0 -0.67749479559E+01  0.73553079785E+01  0.16806907278E+01  0.10140275975E+02  0.51100000000E-03 0.  1.
         11    1    3    3    0    0  0.67749479559E+01 -0.73553079785E+01  0.17259823382E+01  0.10147881087E+02  0.51100000000E-03 0. -1.
<mgrwt>
<rscale>  0 0.20000097E+02</rscale>
<asrwt>0</asrwt>
<pdfrwt beam="2">  1        4 0.12985757E-02 0.20000097E+02</pdfrwt>
<pdfrwt beam="1">  1       -4 0.18226792E-02 0.20000097E+02</pdfrwt>
<totfact> 0.12996763E+06</totfact>
</mgrwt>
</event>
<event>
 5    1  0.1154861E-006  0.2000056E+02  0.7818608E-02  0.1745317E+00
         -4   -1    0    0    0  501 -0.00000000000E+00  0.00000000000E+00  0.25036034515E+02  0.25076272136E+02  0.14200000000E+01 0. -1.
          4   -1    0    0  501    0  0.00000000000E+00 -0.00000000000E+00 -0.38233305156E+01  0.40785115215E+01  0.14200000000E+01 0.  1.
       1023    2    1    2    0    0  0.00000000000E+00  0.00000000000E+00  0.21212703999E+02  0.29154783657E+02  0.20000564971E+02 0.  0.
        -11    1    3    3    0    0 -0.90837265136E+01 -0.41816738008E+01  0.10711127673E+02  0.14653625471E+02  0.51100000000E-03 0. -1.
         11    1    3    3    0    0  0.90837265136E+01  0.41816738008E+01  0.10501576326E+02  0.14501158186E+02  0.51100000000E-03 0.  1.
<mgrwt>
<rscale>  0 0.20000565E+02</rscale>
<asrwt>0</asrwt>
<pdfrwt beam="2">  1        4 0.61092921E-03 0.20000565E+02</pdfrwt>
<pdfrwt beam="1">  1       -4 0.38744221E-02 0.20000565E+02</pdfrwt>
<totfact> 0.12499406E+06</totfact>
</mgrwt>
</event>
<event>
 5    1  0.1154861E-006  0.2000022E+02  0.7818608E-02  0.1745324E+00
          4   -1    0    0  501    0  0.00000000000E+00  0.00000000000E+00  0.49396241847E+01  0.51396777220E+01  0.14200000000E+01 0.  1.
         -4   -1    0    0    0  501 -0.00000000000E+00 -0.00000000000E+00 -0.19616852325E+02  0.19668179762E+02  0.14200000000E+01 0. -1.
       1023    2    1    2    0    0  0.00000000000E+00  0.00000000000E+00 -0.14677228140E+02  0.24807857484E+02  0.20000219175E+02 0.  0.
        -11    1    3    3    0    0 -0.14078275329E+01 -0.99005065497E+01 -0.73218254489E+01  0.12393995985E+02  0.51100000000E-03 0. -1.
         11    1    3    3    0    0  0.14078275329E+01  0.99005065497E+01 -0.73554026914E+01  0.12413861499E+02  0.51100000000E-03 0.  1.
<mgrwt>
<rscale>  0 0.20000219E+02</rscale>
<asrwt>0</asrwt>
<pdfrwt beam="1">  1        4 0.77927919E-03 0.20000219E+02</pdfrwt>
<pdfrwt beam="2">  1       -4 0.30373142E-02 0.20000219E+02</pdfrwt>
<totfact> 0.12736050E+06</totfact>
</mgrwt>
</event>
<event>
 5    1  0.1154861E-006  0.2000065E+02  0.7818608E-02  0.1745315E+00
          4   -1    0    0  501    0  0.00000000000E+00  0.00000000000E+00  0.50942066004E+00  0.15086117489E+01  0.14200000000E+01 0.  1.
         -4   -1    0    0    0  501 -0.00000000000E+00 -0.00000000000E+00 -0.98106035263E+02  0.98116311360E+02  0.14200000000E+01 0.  1.
       1023    2    1    2    0    0  0.00000000000E+00  0.00000000000E+00 -0.97596614603E+02  0.99624923109E+02  0.20000653055E+02 0.  0.
        -11    1    3    3    0    0  0.60818787843E+00 -0.99817315309E+01 -0.49002078315E+02  0.50012083903E+02  0.51100000000E-03 0. -1.
         11    1    3    3    0    0 -0.60818787843E+00  0.99817315309E+01 -0.48594536288E+02  0.49612839206E+02  0.51100000000E-03 0.  1.
<mgrwt>
<rscale>  0 0.20000653E+02</rscale>
<asrwt>0</asrwt>
<pdfrwt beam="1">  1        4 0.15602381E-03 0.20000653E+02</pdfrwt>
<pdfrwt beam="2">  1       -4 0.15170880E-01 0.20000653E+02</pdfrwt>
<totfact> 0.98113042E+05</totfact>
</mgrwt>
</event>
<event>
 5    1  0.1154861E-006  0.2000726E+02  0.7818608E-02  0.1745184E+00
          4   -1    0    0  501    0  0.00000000000E+00  0.00000000000E+00  0.54032657558E+01  0.55867415215E+01  0.14200000000E+01 0.  1.
         -4   -1    0    0    0  501 -0.00000000000E+00 -0.00000000000E+00 -0.17999664373E+02  0.18055589649E+02  0.14200000000E+01 0. -1.
       1023    2    1    2    0    0  0.00000000000E+00  0.00000000000E+00 -0.12596398618E+02  0.23642331170E+02  0.20007262807E+02 0.  0.
        -11    1    3    3    0    0  0.76754374901E+00  0.99740165706E+01 -0.62389846668E+01  0.11789616613E+02  0.51100000000E-03 0.  1.
         11    1    3    3    0    0 -0.76754374901E+00 -0.99740165706E+01 -0.63574139508E+01  0.11852714557E+02  0.51100000000E-03 0. -1.
<mgrwt>
<rscale>  0 0.20007263E+02</rscale>
<asrwt>0</asrwt>
<pdfrwt beam="1">  1        4 0.84968713E-03 0.20007263E+02</pdfrwt>
<pdfrwt beam="2">  1       -4 0.27875946E-02 0.20007263E+02</pdfrwt>
<totfact> 0.12792519E+06</totfact>
</mgrwt>
</event>
<event>
 5    1  0.1154861E-006  0.2001042E+02  0.7818608E-02  0.1745121E+00
         -4   -1    0    0    0  501 -0.00000000000E+00  0.00000000000E+00  0.18526887680E+02  0.18581226200E+02  0.14200000000E+01 0. -1.
          4   -1    0    0  501    0  0.00000000000E+00 -0.00000000000E+00 -0.52464136620E+01  0.54351868701E+01  0.14200000000E+01 0.  1.
       1023    2    1    2    0    0  0.00000000000E+00  0.00000000000E+00  0.13280474018E+02  0.24016413071E+02  0.20010424949E+02 0.  0.
        -11    1    3    3    0    0  0.10004945431E+02 -0.54089406261E-01  0.65812239201E+01  0.11975573777E+02  0.51100000000E-03 0.  1.
         11    1    3    3    0    0 -0.10004945431E+02  0.54089406261E-01  0.66992500980E+01  0.12040839293E+02  0.51100000000E-03 0. -1.
<mgrwt>
<rscale>  0 0.20010425E+02</rscale>
<asrwt>0</asrwt>
<pdfrwt beam="2">  1        4 0.82584145E-03 0.20010425E+02</pdfrwt>
<pdfrwt beam="1">  1       -4 0.28689914E-02 0.20010425E+02</pdfrwt>
<totfact> 0.12767270E+06</totfact>
</mgrwt>
</event>
<event>
 5    1  0.1154861E-006  0.2000274E+02  0.7818608E-02  0.1745274E+00
          4   -1    0    0  501    0  0.00000000000E+00  0.00000000000E+00  0.80069528138E+00  0.16301880056E+01  0.14200000000E+01 0.  1.
         -4   -1    0    0    0  501 -0.00000000000E+00 -0.00000000000E+00 -0.81459347180E+02  0.81471722966E+02  0.14200000000E+01 0. -1.
       1023    2    1    2    0    0  0.00000000000E+00  0.00000000000E+00 -0.80658651899E+02  0.83101910971E+02  0.20002736837E+02 0.  0.
        -11    1    3    3    0    0  0.55289166203E+01 -0.83331541646E+01 -0.39787758900E+02  0.41025310917E+02  0.51100000000E-03 0. -1.
         11    1    3    3    0    0 -0.55289166203E+01  0.83331541646E+01 -0.40870892999E+02  0.42076600054E+02  0.51100000000E-03 0.  1.
<mgrwt>
<rscale>  0 0.20002737E+02</rscale>
<asrwt>0</asrwt>
<pdfrwt beam="1">  1        4 0.18794307E-03 0.20002737E+02</pdfrwt>
<pdfrwt beam="2">  1       -4 0.12596962E-01 0.20002737E+02</pdfrwt>
<totfact> 0.10308103E+06</totfact>
</mgrwt>
</event>
<event>
 5    1  0.1154861E-006  0.2000097E+02  0.7818608E-02  0.1745309E+00
          4   -1    0    0  501    0  0.00000000000E+00  0.00000000000E+00  0.68569119594E+00  0.15768869383E+01  0.14200000000E+01 0. -1.
         -4   -1    0    0    0  501 -0.00000000000E+00 -0.00000000000E+00 -0.87504059567E+02  0.87515580560E+02  0.14200000000E+01 0.  1.
       1023    2    1    2    0    0  0.00000000000E+00  0.00000000000E+00 -0.86818368372E+02  0.89092467499E+02  0.20000966934E+02 0.  0.
        -11    1    3    3    0    0  0.70831037691E+01 -0.70595705734E+01 -0.43221589414E+02  0.44363427363E+02  0.51100000000E-03 0. -1.
         11    1    3    3    0    0 -0.70831037691E+01  0.70595705734E+01 -0.43596778958E+02  0.44729040136E+02  0.51100000000E-03 0.  1.
<mgrwt>
<rscale>  0 0.20000967E+02</rscale>
<asrwt>0</asrwt>
<pdfrwt beam="1">  1        4 0.17493077E-03 0.20000967E+02</pdfrwt>
<pdfrwt beam="2">  1       -4 0.13531597E-01 0.20000967E+02</pdfrwt>
<totfact> 0.10122459E+06</totfact>
</mgrwt>
</event>
<event>
 5    1  0.1207365E-006  0.2000134E+02  0.7818608E-02  0.1745301E+00
          4   -1    0    0  501    0  0.00000000000E+00  0.00000000000E+00  0.12597982837E+02  0.12677758933E+02  0.14200000000E+01 0.  1.
         -4   -1    0    0    0  501 -0.00000000000E+00 -0.00000000000E+00 -0.77694598675E+01  0.78981584330E+01  0.14200000000E+01 0. -1.
       1023    2    1    2    0    0  0.00000000000E+00  0.00000000000E+00  0.48285229694E+01  0.20575917366E+02  0.20001343489E+02 0.  0.
        -11    1    3    3    0    0 -0.54880865324E+01 -0.83601215250E+01  0.24678085056E+01  0.10300524491E+02  0.51100000000E-03 0. -1.
         11    1    3    3    0    0  0.54880865324E+01  0.83601215250E+01  0.23607144638E+01  0.10275392875E+02  0.51100000000E-03 0.  1.
<mgrwt>
<rscale>  0 0.20001343E+02</rscale>
<asrwt>0</asrwt>
<pdfrwt beam="1">  1        4 0.19541877E-02 0.20001343E+02</pdfrwt>
<pdfrwt beam="2">  1       -4 0.12113380E-02 0.20001343E+02</pdfrwt>
<totfact> 0.12978050E+06</totfact>
</mgrwt>
</event>
<event>
 5    1  0.1188408E-006  0.2000140E+02  0.7818608E-02  0.1745300E+00
          4   -1    0    0  501    0  0.00000000000E+00  0.00000000000E+00  0.26389717527E+02  0.26427894187E+02  0.14200000000E+01 0. -1.
         -4   -1    0    0    0  501 -0.00000000000E+00 -0.00000000000E+00 -0.36144035226E+01  0.38833378457E+01  0.14200000000E+01 0.  1.
       1023    2    1    2    0    0  0.00000000000E+00  0.00000000000E+00  0.22775314005E+02  0.30311232033E+02  0.20001396435E+02 0.  0.
        -11    1    3    3    0    0  0.99567036273E+01  0.93702516444E+00  0.11385932841E+02  0.15154320513E+02  0.51100000000E-03 0. -1.
         11    1    3    3    0    0 -0.99567036273E+01 -0.93702516444E+00  0.11389381163E+02  0.15156911520E+02  0.51100000000E-03 0.  1.
<mgrwt>
<rscale>  0 0.20001396E+02</rscale>
<asrwt>0</asrwt>
<pdfrwt beam="1">  1        4 0.40835803E-02 0.20001396E+02</pdfrwt>
<pdfrwt beam="2">  1       -4 0.57968602E-03 0.20001396E+02</pdfrwt>
<totfact> 0.12437752E+06</totfact>
</mgrwt>
</event>
<event>
 5    1  0.1154861E-006  0.2000187E+02  0.7818608E-02  0.1745291E+00
         -4   -1    0    0    0  501 -0.00000000000E+00  0.00000000000E+00  0.77038584042E+02  0.77051669879E+02  0.14200000000E+01 0.  1.
          4   -1    0    0  501    0  0.00000000000E+00 -0.00000000000E+00 -0.89278744470E+00  0.16773399838E+01  0.14200000000E+01 0. -1.
       1023    2    1    2    0    0  0.00000000000E+00  0.00000000000E+00  0.76145796597E+02  0.78729009863E+02  0.20001866278E+02 0.  0.
        -11    1    3    3    0    0  0.99393485736E+01 -0.11078092098E+01  0.38182267408E+02  0.39470285481E+02  0.51100000000E-03 0. -1.
         11    1    3    3    0    0 -0.99393485736E+01  0.11078092098E+01  0.37963529190E+02  0.39258724382E+02  0.51100000000E-03 0.  1.
<mgrwt>
<rscale>  0 0.20001866E+02</rscale>
<asrwt>0</asrwt>
<pdfrwt beam="2">  1        4 0.19870868E-03 0.20001866E+02</pdfrwt>
<pdfrwt beam="1">  1       -4 0.11913449E-01 0.20001866E+02</pdfrwt>
<totfact> 0.10450948E+06</totfact>
</mgrwt>
</event>
<event>
 5    1  0.1154861E-006  0.2000031E+02  0.7818608E-02  0.1745322E+00
         -4   -1    0    0    0  501 -0.00000000000E+00  0.00000000000E+00  0.44742989940E+02  0.44765517408E+02  0.14200000000E+01 0.  1.
          4   -1    0    0  501    0  0.00000000000E+00 -0.00000000000E+00 -0.19840071776E+01  0.24398123864E+01  0.14200000000E+01 0. -1.
       1023    2    1    2    0    0  0.00000000000E+00  0.00000000000E+00  0.42758982763E+02  0.47205329794E+02  0.20000313850E+02 0.  0.
        -11    1    3    3    0    0 -0.13135381119E+01  0.99135114730E+01  0.21395527699E+02  0.23617190728E+02  0.51100000000E-03 0.  1.
         11    1    3    3    0    0  0.13135381119E+01 -0.99135114730E+01  0.21363455064E+02  0.23588139066E+02  0.51100000000E-03 0. -1.
<mgrwt>
<rscale>  0 0.20000314E+02</rscale>
<asrwt>0</asrwt>
<pdfrwt beam="2">  1        4 0.34202674E-03 0.20000314E+02</pdfrwt>
<pdfrwt beam="1">  1       -4 0.69203308E-02 0.20000314E+02</pdfrwt>
<totfact> 0.11639014E+06</totfact>
</mgrwt>
</event>
<event>
 5    1  0.1154861E-006  0.2000040E+02  0.7818608E-02  0.1745320E+00
         -4   -1    0    0    0  501 -0.00000000000E+00  0.00000000000E+00  0.63391794393E+00  0.15550729757E+01  0.14200000000E+01 0. -1.
          4   -1    0    0  501    0  0.00000000000E+00 -0.00000000000E+00 -0.90440884063E+02  0.90452030989E+02  0.14200000000E+01 0.  1.
       1023    2    1    2    0    0  0.00000000000E+00  0.00000000000E+00 -0.89806966119E+02  0.92007103965E+02  0.20000400409E+02 0.  0.
        -11    1    3    3    0    0  0.36458234096E+01 -0.93119157115E+01 -0.44968754183E+02  0.46067262297E+02  0.51100000000E-03 0. -1.
         11    1    3    3    0    0 -0.36458234096E+01  0.93119157115E+01 -0.44838211936E+02  0.45939841667E+02  0.51100000000E-03 0.  1.
<mgrwt>
<rscale>  0 0.20000400E+02</rscale>
<asrwt>0</asrwt>
<pdfrwt beam="2">  1        4 0.13985692E-01 0.20000400E+02</pdfrwt>
<pdfrwt beam="1">  1       -4 0.16924144E-03 0.20000400E+02</pdfrwt>
<totfact> 0.10034594E+06</totfact>
</mgrwt>
</event>
<event>
 5    1  0.1154861E-006  0.2000135E+02  0.7818608E-02  0.1745301E+00
          4   -1    0    0  501    0  0.00000000000E+00  0.00000000000E+00  0.51559186497E+00  0.15107067787E+01  0.14200000000E+01 0. -1.
         -4   -1    0    0    0  501 -0.00000000000E+00 -0.00000000000E+00 -0.97712683728E+02  0.97723001188E+02  0.14200000000E+01 0.  1.
       1023    2    1    2    0    0  0.00000000000E+00  0.00000000000E+00 -0.97197091863E+02  0.99233707967E+02  0.20001353212E+02 0.  0.
        -11    1    3    3    0    0 -0.23157555888E+01 -0.97288636463E+01 -0.48576068233E+02  0.49594837605E+02  0.51100000000E-03 0.  1.
         11    1    3    3    0    0  0.23157555888E+01  0.97288636463E+01 -0.48621023629E+02  0.49638870362E+02  0.51100000000E-03 0. -1.
<mgrwt>
<rscale>  0 0.20001353E+02</rscale>
<asrwt>0</asrwt>
<pdfrwt beam="1">  1        4 0.15666285E-03 0.20001353E+02</pdfrwt>
<pdfrwt beam="2">  1       -4 0.15110054E-01 0.20001353E+02</pdfrwt>
<totfact> 0.98217989E+05</totfact>
</mgrwt>
</event>
<event>
 5    1  0.1154861E-006  0.2000374E+02  0.7818608E-02  0.1745254E+00
          4   -1    0    0  501    0  0.00000000000E+00  0.00000000000E+00  0.25722870709E+01  0.29382070681E+01  0.14200000000E+01 0. -1.
         -4   -1    0    0    0  501 -0.00000000000E+00 -0.00000000000E+00 -0.35927101842E+02  0.35955153271E+02  0.14200000000E+01 0.  1.
       1023    2    1    2    0    0  0.00000000000E+00  0.00000000000E+00 -0.33354814771E+02  0.38893360339E+02  0.20003744901E+02 0.  0.
        -11    1    3    3    0    0  0.98041425352E+01 -0.19789487391E+01 -0.16673878488E+02  0.19443653799E+02  0.51100000000E-03 0. -1.
         11    1    3    3    0    0 -0.98041425352E+01  0.19789487391E+01 -0.16680936283E+02  0.19449706540E+02  0.51100000000E-03 0.  1.
<mgrwt>
<rscale>  0 0.20003745E+02</rscale>
<asrwt>0</asrwt>
<pdfrwt beam="1">  1        4 0.42604199E-03 0.20003745E+02</pdfrwt>
<pdfrwt beam="2">  1       -4 0.55575516E-02 0.20003745E+02</pdfrwt>
<totfact> 0.12009878E+06</totfact>
</mgrwt>
</event>
<event>
 5    1  0.1154861E-006  0.2000032E+02  0.7818608E-02  0.1745322E+00
          4   -1    0    0  501    0  0.00000000000E+00  0.00000000000E+00  0.15184167579E+01  0.20789395014E+01  0.14200000000E+01 0.  1.
         -4   -1    0    0    0  501 -0.00000000000E+00 -0.00000000000E+00 -0.55027044787E+02  0.55045363638E+02  0.14200000000E+01 0. -1.
       1023    2    1    2    0    0  0.00000000000E+00  0.00000000000E+00 -0.53508628030E+02  0.57124303139E+02  0.20000318386E+02 0.  0.
        -11    1    3    3    0    0  0.56715110545E+01  0.82362588510E+01 -0.26852680990E+02  0.28654292420E+02  0.51100000000E-03 0.  1.
         11    1    3    3    0    0 -0.56715110545E+01 -0.82362588510E+01 -0.26655947039E+02  0.28470010719E+02  0.51100000000E-03 0. -1.
<mgrwt>
<rscale>  0 0.20000318E+02</rscale>
<asrwt>0</asrwt>
<pdfrwt beam="1">  1        4 0.27812890E-03 0.20000318E+02</pdfrwt>
<pdfrwt beam="2">  1       -4 0.85102242E-02 0.20000318E+02</pdfrwt>
<totfact> 0.11230184E+06</totfact>
</mgrwt>
</event>
<event>
 5    1  0.1154861E-006  0.2000404E+02  0.7818608E-02  0.1745248E+00
          4   -1    0    0  501    0  0.00000000000E+00  0.00000000000E+00  0.62576782418E+01  0.64167699801E+01  0.14200000000E+01 0.  1.
         -4   -1    0    0    0  501 -0.00000000000E+00 -0.00000000000E+00 -0.15594406105E+02  0.15658924030E+02  0.14200000000E+01 0. -1.
       1023    2    1    2    0    0  0.00000000000E+00  0.00000000000E+00 -0.93367278635E+01  0.22075694010E+02  0.20004044062E+02 0.  0.
        -11    1    3    3    0    0  0.76618741841E+01  0.64284463148E+01 -0.45515405366E+01  0.10988437539E+02  0.51100000000E-03 0.  1.
         11    1    3    3    0    0 -0.76618741841E+01 -0.64284463148E+01 -0.47851873269E+01  0.11087256471E+02  0.51100000000E-03 0. -1.
<mgrwt>
<rscale>  0 0.20004044E+02</rscale>
<asrwt>0</asrwt>
<pdfrwt beam="1">  1        4 0.97992048E-03 0.20004044E+02</pdfrwt>
<pdfrwt beam="2">  1       -4 0.24163401E-02 0.20004044E+02</pdfrwt>
<totfact> 0.12886518E+06</totfact>
</mgrwt>
</event>
<event>
 5    1  0.1168582E-006  0.2000206E+02  0.7818608E-02  0.1745287E+00
          4   -1    0    0  501    0  0.00000000000E+00  0.00000000000E+00  0.85843134789E+01  0.87009676419E+01  0.14200000000E+01 0.  1.
         -4   -1    0    0    0  501 -0.00000000000E+00 -0.00000000000E+00 -0.11411969203E+02  0.11499975699E+02  0.14200000000E+01 0. -1.
       1023    2    1    2    0    0  0.00000000000E+00  0.00000000000E+00 -0.28276557236E+01  0.20200943341E+02  0.20002061768E+02 0.  0.
        -11    1    3    3    0    0  0.59897348787E+01 -0.80080625844E+01 -0.15359775789E+01  0.10117569751E+02  0.51100000000E-03 0.  1.
         11    1    3    3    0    0 -0.59897348787E+01  0.80080625844E+01 -0.12916781446E+01  0.10083373590E+02  0.51100000000E-03 0. -1.
<mgrwt>
<rscale>  0 0.20002062E+02</rscale>
<asrwt>0</asrwt>
<pdfrwt beam="1">  1        4 0.13364067E-02 0.20002062E+02</pdfrwt>
<pdfrwt beam="2">  1       -4 0.17714307E-02 0.20002062E+02</pdfrwt>
<totfact> 0.12999351E+06</totfact>
</mgrwt>
</event>
<event>
 5    1  0.1154861E-006  0.2000906E+02  0.7818608E-02  0.1745148E+00
         -4   -1    0    0    0  501 -0.00000000000E+00  0.00000000000E+00  0.31194394600E+02  0.31226697784E+02  0.14200000000E+01 0. -1.
          4   -1    0    0  501    0  0.00000000000E+00 -0.00000000000E+00 -0.30157695471E+01  0.33333565608E+01  0.14200000000E+01 0.  1.
       1023    2    1    2    0    0  0.00000000000E+00  0.00000000000E+00  0.28178625053E+02  0.34560054345E+02  0.20009059109E+02 0.  0.
        -11    1    3    3    0    0  0.58367700020E+01  0.81204947718E+01  0.14578734816E+02  0.17679078836E+02  0.51100000000E-03 0. -1.
         11    1    3    3    0    0 -0.58367700020E+01 -0.81204947718E+01  0.13599890238E+02  0.16880975509E+02  0.51100000000E-03 0.  1.
<mgrwt>
<rscale>  0 0.20009059E+02</rscale>
<asrwt>0</asrwt>
<pdfrwt beam="2">  1        4 0.49087920E-03 0.20009059E+02</pdfrwt>
<pdfrwt beam="1">  1       -4 0.48260520E-02 0.20009059E+02</pdfrwt>
<totfact> 0.12212497E+06</totfact>
</mgrwt>
</event>
<event>
 4    1  0.1154861E-006  0.2019467E+02  0.7818608E-02  0.1741484E+00
          4   -1    0    0  501    0  0.00000000000E+00  0.00000000000E+00  0.35815069787E+02  0.35843208894E+02  0.14200000000E+01 0.  1.
         -4   -1    0    0    0  501 -0.00000000000E+00 -0.00000000000E+00 -0.26384906121E+01  0.29963365482E+01  0.14200000000E+01 0. -1.
        -11    1    1    2    0    0  0.81734943227E+01  0.58849178934E+01  0.17972437068E+02  0.20602105778E+02  0.51100000000E-03 0. -1.
         11    1    1    2    0    0 -0.81734943227E+01 -0.58849178934E+01  0.15204142107E+02  0.18237439665E+02  0.51100000000E-03 0.  1.
<mgrwt>
<rscale>  0 0.20194675E+02</rscale>
<asrwt>0</asrwt>
<pdfrwt beam="1">  1        4 0.55397017E-02 0.20194675E+02</pdfrwt>
<pdfrwt beam="2">  1       -4 0.43561281E-03 0.20194675E+02</pdfrwt>
<totfact> 0.11783248E+06</totfact>
</mgrwt>
</event>
<event>
 5    1  0.1154861E-006  0.2000042E+02  0.7818608E-02  0.1745320E+00
         -4   -1    0    0    0  501 -0.00000000000E+00  0.00000000000E+00  0.95577437810E+02  0.95587985743E+02  0.14200000000E+01 0.  1.
          4   -1    0    0  501    0  0.00000000000E+00 -0.00000000000E+00 -0.54895105269E+00  0.15224149429E+01  0.14200000000E+01 0. -1.
       1023    2    1    2    0    0  0.00000000000E+00  0.00000000000E+00  0.95028486757E+02  0.97110400686E+02  0.20000415643E+02 0.  0.
        -11    1    3    3    0    0 -0.76935874451E+01  0.63883192002E+01  0.47284123351E+02  0.48330013773E+02  0.51100000000E-03 0.  1.
         11    1    3    3    0    0  0.76935874451E+01 -0.63883192002E+01  0.47744363406E+02  0.48780386912E+02  0.51100000000E-03 0. -1.
<mgrwt>
<rscale>  0 0.20000416E+02</rscale>
<asrwt>0</asrwt>
<pdfrwt beam="2">  1        4 0.16014715E-03 0.20000416E+02</pdfrwt>
<pdfrwt beam="1">  1       -4 0.14779921E-01 0.20000416E+02</pdfrwt>
<totfact> 0.98839048E+05</totfact>
</mgrwt>
</event>
<event>
 4    1  0.1154861E-006  0.2007802E+02  0.7818608E-02  0.1743781E+00
          4   -1    0    0  501    0  0.00000000000E+00  0.00000000000E+00  0.41856782714E+02  0.41880862684E+02  0.14200000000E+01 0.  1.
         -4   -1    0    0    0  501 -0.00000000000E+00 -0.00000000000E+00 -0.21713969684E+01  0.25944873857E+01  0.14200000000E+01 0. -1.
        -11    1    1    2    0    0  0.62406586278E+01  0.78634740065E+01  0.19933666668E+02  0.22318851016E+02  0.51100000000E-03 0. -1.
         11    1    1    2    0    0 -0.62406586278E+01 -0.78634740065E+01  0.19751719077E+02  0.22156499053E+02  0.51100000000E-03 0.  1.
<mgrwt>
<rscale>  0 0.20078021E+02</rscale>
<asrwt>0</asrwt>
<pdfrwt beam="1">  1        4 0.64739025E-02 0.20078021E+02</pdfrwt>
<pdfrwt beam="2">  1       -4 0.36845881E-03 0.20078021E+02</pdfrwt>
<totfact> 0.11666856E+06</totfact>
</mgrwt>
</event>
<event>
 5    1  0.1174864E-006  0.2000110E+02  0.7818608E-02  0.1745306E+00
          4   -1    0    0  501    0  0.00000000000E+00  0.00000000000E+00  0.13662272970E+01  0.19705270937E+01  0.14200000000E+01 0.  1.
         -4   -1    0    0    0  501 -0.00000000000E+00 -0.00000000000E+00 -0.59330753150E+02  0.59347743591E+02  0.14200000000E+01 0. -1.
       1023    2    1    2    0    0  0.00000000000E+00  0.00000000000E+00 -0.57964525853E+02  0.61318270685E+02  0.20001101530E+02 0.  0.
        -11    1    3    3    0    0  0.98598287269E+01  0.16694297158E+01 -0.28711551551E+02  0.30403230269E+02  0.51100000000E-03 0.  1.
         11    1    3    3    0    0 -0.98598287269E+01 -0.16694297158E+01 -0.29252974303E+02  0.30915040416E+02  0.51100000000E-03 0. -1.
<mgrwt>
<rscale>  0 0.20001102E+02</rscale>
<asrwt>0</asrwt>
<pdfrwt beam="1">  1        4 0.25798042E-03 0.20001102E+02</pdfrwt>
<pdfrwt beam="2">  1       -4 0.91755981E-02 0.20001102E+02</pdfrwt>
<totfact> 0.11067305E+06</totfact>
</mgrwt>
</event>
<event>
 4    1  0.1154861E-006  0.2001635E+02  0.7818608E-02  0.1745003E+00
          4   -1    0    0  501    0  0.00000000000E+00  0.00000000000E+00  0.20337798845E+02  0.20387311295E+02  0.14200000000E+01 0.  1.
         -4   -1    0    0    0  501 -0.00000000000E+00 -0.00000000000E+00 -0.47658453383E+01  0.49728947092E+01  0.14200000000E+01 0. -1.
        -11    1    1    2    0    0 -0.46447318271E+01 -0.88632393914E+01  0.75557091364E+01  0.12538711539E+02  0.51100000000E-03 0. -1.
         11    1    1    2    0    0  0.46447318271E+01  0.88632393914E+01  0.80162443701E+01  0.12821494465E+02  0.51100000000E-03 0.  1.
<mgrwt>
<rscale>  0 0.20016351E+02</rscale>
<asrwt>0</asrwt>
<pdfrwt beam="1">  1        4 0.31486277E-02 0.20016351E+02</pdfrwt>
<pdfrwt beam="2">  1       -4 0.75294250E-03 0.20016351E+02</pdfrwt>
<totfact> 0.12684417E+06</totfact>
</mgrwt>
</event>
<event>
 5    1  0.1154861E-006  0.2000018E+02  0.7818608E-02  0.1745325E+00
          4   -1    0    0  501    0  0.00000000000E+00  0.00000000000E+00  0.42502410256E+00  0.14822433969E+01  0.14200000000E+01 0. -1.
         -4   -1    0    0    0  501 -0.00000000000E+00 -0.00000000000E+00 -0.10379916673E+03  0.10380887926E+03  0.14200000000E+01 0.  1.
       1023    2    1    2    0    0  0.00000000000E+00  0.00000000000E+00 -0.10337414263E+03  0.10529112266E+03  0.20000178675E+02 0.  0.
        -11    1    3    3    0    0  0.48558996400E+01 -0.87419640086E+01 -0.51637001529E+02  0.52596403139E+02  0.51100000000E-03 0. -1.
         11    1    3    3    0    0 -0.48558996400E+01  0.87419640086E+01 -0.51737141099E+02  0.52694719521E+02  0.51100000000E-03 0.  1.
<mgrwt>
<rscale>  0 0.20000179E+02</rscale>
<asrwt>0</asrwt>
<pdfrwt beam="1">  1        4 0.14746008E-03 0.20000179E+02</pdfrwt>
<pdfrwt beam="2">  1       -4 0.16051165E-01 0.20000179E+02</pdfrwt>
<totfact> 0.96529426E+05</totfact>
</mgrwt>
</event>
<event>
 5    1  0.1154861E-006  0.2000024E+02  0.7818608E-02  0.1745323E+00
          4   -1    0    0  501    0  0.00000000000E+00  0.00000000000E+00  0.68796872117E+01  0.70247061242E+01  0.14200000000E+01 0.  1.
         -4   -1    0    0    0  501 -0.00000000000E+00 -0.00000000000E+00 -0.14203503173E+02  0.14274309173E+02  0.14200000000E+01 0. -1.
       1023    2    1    2    0    0  0.00000000000E+00  0.00000000000E+00 -0.73238159608E+01  0.21299015297E+02  0.20000244309E+02 0.  0.
        -11    1    3    3    0    0  0.67259668247E+01  0.74001416249E+01 -0.36177798772E+01  0.10634333891E+02  0.51100000000E-03 0. -1.
         11    1    3    3    0    0 -0.67259668247E+01 -0.74001416249E+01 -0.37060360836E+01  0.10664681407E+02  0.51100000000E-03 0.  1.
<mgrwt>
<rscale>  0 0.20000244E+02</rscale>
<asrwt>0</asrwt>
<pdfrwt beam="1">  1        4 0.10750153E-02 0.20000244E+02</pdfrwt>
<pdfrwt beam="2">  1       -4 0.22017563E-02 0.20000244E+02</pdfrwt>
<totfact> 0.12936824E+06</totfact>
</mgrwt>
</event>
<event>
 4    1  0.1167234E-006  0.2024081E+02  0.7818608E-02  0.1740581E+00
          4   -1    0    0  501    0  0.00000000000E+00  0.00000000000E+00  0.43676148516E+02  0.43699225957E+02  0.14200000000E+01 0. -1.
         -4   -1    0    0    0  501 -0.00000000000E+00 -0.00000000000E+00 -0.21041279982E+01  0.25384551666E+01  0.14200000000E+01 0.  1.
        -11    1    1    2    0    0 -0.99317440608E+01 -0.16578589197E+01  0.23109494560E+02  0.25207871298E+02  0.51100000000E-03 0. -1.
         11    1    1    2    0    0  0.99317440608E+01  0.16578589197E+01  0.18462525958E+02  0.21029809826E+02  0.51100000000E-03 0.  1.
<mgrwt>
<rscale>  0 0.20240807E+02</rscale>
<asrwt>0</asrwt>
<pdfrwt beam="1">  1        4 0.67545925E-02 0.20240807E+02</pdfrwt>
<pdfrwt beam="2">  1       -4 0.35889697E-03 0.20240807E+02</pdfrwt>
<totfact> 0.11401940E+06</totfact>
</mgrwt>
</event>
<event>
 5    1  0.1154861E-006  0.2000194E+02  0.7818608E-02  0.1745290E+00
         -4   -1    0    0    0  501 -0.00000000000E+00  0.00000000000E+00  0.19109819510E+01  0.23808091098E+01  0.14200000000E+01 0. -1.
          4   -1    0    0  501    0  0.00000000000E+00 -0.00000000000E+00 -0.46127677855E+02  0.46149529405E+02  0.14200000000E+01 0.  1.
       1023    2    1    2    0    0  0.00000000000E+00  0.00000000000E+00 -0.44216695904E+02  0.48530338514E+02  0.20001938898E+02 0.  0.
        -11    1    3    3    0    0  0.73755005347E+01 -0.67539887907E+01 -0.22280202301E+02  0.24421748249E+02  0.51100000000E-03 0. -1.
         11    1    3    3    0    0 -0.73755005347E+01  0.67539887907E+01 -0.21936493603E+02  0.24108590265E+02  0.51100000000E-03 0.  1.
<mgrwt>
<rscale>  0 0.20001939E+02</rscale>
<asrwt>0</asrwt>
<pdfrwt beam="2">  1        4 0.71343865E-02 0.20001939E+02</pdfrwt>
<pdfrwt beam="1">  1       -4 0.33181870E-03 0.20001939E+02</pdfrwt>
<totfact> 0.11580206E+06</totfact>
</mgrwt>
</event>
<event>
 5    1  0.1154861E-006  0.2000565E+02  0.7818608E-02  0.1745216E+00
         -4   -1    0    0    0  501 -0.00000000000E+00  0.00000000000E+00  0.64503367815E+01  0.66047895193E+01  0.14200000000E+01 0. -1.
          4   -1    0    0  501    0  0.00000000000E+00 -0.00000000000E+00 -0.15140235243E+02  0.15206680217E+02  0.14200000000E+01 0.  1.
       1023    2    1    2    0    0  0.00000000000E+00  0.00000000000E+00 -0.86898984613E+01  0.21811469736E+02  0.20005646122E+02 0.  0.
        -11    1    3    3    0    0 -0.99431623482E+01  0.10908580282E+01 -0.43498507889E+01  0.10907687696E+02  0.51100000000E-03 0.  1.
         11    1    3    3    0    0  0.99431623482E+01 -0.10908580282E+01 -0.43400476724E+01  0.10903782040E+02  0.51100000000E-03 0. -1.
<mgrwt>
<rscale>  0 0.20005646E+02</rscale>
<asrwt>0</asrwt>
<pdfrwt beam="2">  1        4 0.23462591E-02 0.20005646E+02</pdfrwt>
<pdfrwt beam="1">  1       -4 0.10093516E-02 0.20005646E+02</pdfrwt>
<totfact> 0.12899755E+06</totfact>
</mgrwt>
</event>
<event>
 4    1  0.1154861E-006  0.2009757E+02  0.7818608E-02  0.1743395E+00
         -4   -1    0    0    0  501 -0.00000000000E+00  0.00000000000E+00  0.30508558209E+02  0.30541586796E+02  0.14200000000E+01 0.  1.
          4   -1    0    0  501    0  0.00000000000E+00 -0.00000000000E+00 -0.31209992227E+01  0.34288534743E+01  0.14200000000E+01 0. -1.
        -11    1    1    2    0    0 -0.87483695810E+01 -0.49438757514E+01  0.13773566856E+02  0.17049546093E+02  0.51100000000E-03 0.  1.
         11    1    1    2    0    0  0.87483695810E+01  0.49438757514E+01  0.13613992131E+02  0.16920894177E+02  0.51100000000E-03 0. -1.
<mgrwt>
<rscale>  0 0.20097573E+02</rscale>
<asrwt>0</asrwt>
<pdfrwt beam="2">  1        4 0.50637552E-03 0.20097573E+02</pdfrwt>
<pdfrwt beam="1">  1       -4 0.47198457E-02 0.20097573E+02</pdfrwt>
<totfact> 0.12132565E+06</totfact>
</mgrwt>
</event>
<event>
 4    1  0.1154861E-006  0.2004967E+02  0.7818608E-02  0.1744342E+00
          4   -1    0    0  501    0  0.00000000000E+00  0.00000000000E+00  0.96961544659E+01  0.97995822068E+01  0.14200000000E+01 0.  1.
         -4   -1    0    0    0  501 -0.00000000000E+00 -0.00000000000E+00 -0.10156584502E+02  0.10255369751E+02  0.14200000000E+01 0. -1.
        -11    1    1    2    0    0 -0.60566915344E+01  0.79881474587E+01 -0.28735389014E+00  0.10028787797E+02  0.51100000000E-03 0.  1.
         11    1    1    2    0    0  0.60566915344E+01 -0.79881474587E+01 -0.17307614552E+00  0.10026164161E+02  0.51100000000E-03 0. -1.
<mgrwt>
<rscale>  0 0.20049666E+02</rscale>
<asrwt>0</asrwt>
<pdfrwt beam="1">  1        4 0.15072709E-02 0.20049666E+02</pdfrwt>
<pdfrwt beam="2">  1       -4 0.15781063E-02 0.20049666E+02</pdfrwt>
<totfact> 0.12945034E+06</totfact>
</mgrwt>
</event>
<event>
 5    1  0.1154861E-006  0.2000146E+02  0.7818608E-02  0.1745299E+00
          4   -1    0    0  501    0  0.00000000000E+00  0.00000000000E+00  0.88989606850E+02  0.89000935542E+02  0.14200000000E+01 0.  1.
         -4   -1    0    0    0  501 -0.00000000000E+00 -0.00000000000E+00 -0.65932296906E+00  0.15656010914E+01  0.14200000000E+01 0. -1.
       1023    2    1    2    0    0  0.00000000000E+00  0.00000000000E+00  0.88330283881E+02  0.90566536633E+02  0.20001462628E+02 0.  0.
        -11    1    3    3    0    0 -0.37441351390E+01 -0.92732997940E+01  0.43963173816E+02  0.45086287153E+02  0.51100000000E-03 0.  1.
         11    1    3    3    0    0  0.37441351390E+01  0.92732997940E+01  0.44367110065E+02  0.45480249480E+02  0.51100000000E-03 0. -1.
<mgrwt>
<rscale>  0 0.20001463E+02</rscale>
<asrwt>0</asrwt>
<pdfrwt beam="1">  1        4 0.13761295E-01 0.20001463E+02</pdfrwt>
<pdfrwt beam="2">  1       -4 0.17201943E-03 0.20001463E+02</pdfrwt>
<totfact> 0.10077011E+06</totfact>
</mgrwt>
</event>
<event>
 5    1  0.1176984E-006  0.2000094E+02  0.7818608E-02  0.1745309E+00
          4   -1    0    0  501    0  0.00000000000E+00  0.00000000000E+00  0.16310538088E+02  0.16372234201E+02  0.14200000000E+01 0. -1.
         -4   -1    0    0    0  501 -0.00000000000E+00 -0.00000000000E+00 -0.59749446265E+01  0.61413649371E+01  0.14200000000E+01 0.  1.
       1023    2    1    2    0    0  0.00000000000E+00  0.00000000000E+00  0.10335593461E+02  0.22513599138E+02  0.20000941326E+02 0.  0.
        -11    1    3    3    0    0 -0.74401457033E+01  0.66820973616E+01  0.52316703353E+01  0.11286122806E+02  0.51100000000E-03 0. -1.
         11    1    3    3    0    0  0.74401457033E+01 -0.66820973616E+01  0.51039231261E+01  0.11227476332E+02  0.51100000000E-03 0.  1.
<mgrwt>
<rscale>  0 0.20000941E+02</rscale>
<asrwt>0</asrwt>
<pdfrwt beam="1">  1        4 0.25268609E-02 0.20000941E+02</pdfrwt>
<pdfrwt beam="2">  1       -4 0.93676968E-03 0.20000941E+02</pdfrwt>
<totfact> 0.12865281E+06</totfact>
</mgrwt>
</event>
<event>
 4    1  0.1154861E-006  0.2005272E+02  0.7818608E-02  0.1744282E+00
         -4   -1    0    0    0  501 -0.00000000000E+00  0.00000000000E+00  0.57821653925E+01  0.59539765389E+01  0.14200000000E+01 0.  1.
          4   -1    0    0  501    0  0.00000000000E+00 -0.00000000000E+00 -0.16929367328E+02  0.16988816266E+02  0.14200000000E+01 0. -1.
        -11    1    1    2    0    0  0.17171081716E+01 -0.98619268571E+01 -0.62226787739E+01  0.11786763474E+02  0.51100000000E-03 0. -1.
         11    1    1    2    0    0 -0.17171081716E+01  0.98619268571E+01 -0.49245231616E+01  0.11156029331E+02  0.51100000000E-03 0.  1.
<mgrwt>
<rscale>  0 0.20052721E+02</rscale>
<asrwt>0</asrwt>
<pdfrwt beam="2">  1        4 0.26223073E-02 0.20052721E+02</pdfrwt>
<pdfrwt beam="1">  1       -4 0.90735315E-03 0.20052721E+02</pdfrwt>
<totfact> 0.12773099E+06</totfact>
</mgrwt>
</event>
<event>
 5    1  0.1154861E-006  0.2000289E+02  0.7818608E-02  0.1745271E+00
         -4   -1    0    0    0  501 -0.00000000000E+00  0.00000000000E+00  0.34262881598E+00  0.14607513497E+01  0.14200000000E+01 0.  1.
          4   -1    0    0  501    0  0.00000000000E+00 -0.00000000000E+00 -0.10980936702E+03  0.10981854800E+03  0.14200000000E+01 0. -1.
       1023    2    1    2    0    0  0.00000000000E+00  0.00000000000E+00 -0.10946673821E+03  0.11127929935E+03  0.20002892072E+02 0.  0.
        -11    1    3    3    0    0 -0.92563810190E+01 -0.37868066664E+01 -0.54222640277E+02  0.55137239804E+02  0.51100000000E-03 0.  1.
         11    1    3    3    0    0  0.92563810190E+01  0.37868066664E+01 -0.55244097929E+02  0.56142059550E+02  0.51100000000E-03 0. -1.
<mgrwt>
<rscale>  0 0.20002892E+02</rscale>
<asrwt>0</asrwt>
<pdfrwt beam="2">  1        4 0.16980454E-01 0.20002892E+02</pdfrwt>
<pdfrwt beam="1">  1       -4 0.13942787E-03 0.20002892E+02</pdfrwt>
<totfact> 0.94884876E+05</totfact>
</mgrwt>
</event>
<event>
 5    1  0.1154861E-006  0.2000019E+02  0.7818608E-02  0.1745324E+00
          4   -1    0    0  501    0  0.00000000000E+00  0.00000000000E+00  0.27800189037E+02  0.27836431353E+02  0.14200000000E+01 0.  1.
         -4   -1    0    0    0  501 -0.00000000000E+00 -0.00000000000E+00 -0.34168287068E+01  0.37001511336E+01  0.14200000000E+01 0. -1.
       1023    2    1    2    0    0  0.00000000000E+00  0.00000000000E+00  0.24383360330E+02  0.31536582487E+02  0.20000194348E+02 0.  0.
        -11    1    3    3    0    0 -0.81129230709E+01 -0.58464804388E+01  0.12139646378E+02  0.15728059916E+02  0.51100000000E-03 0. -1.
         11    1    3    3    0    0  0.81129230709E+01  0.58464804388E+01  0.12243713952E+02  0.15808522571E+02  0.51100000000E-03 0.  1.
<mgrwt>
<rscale>  0 0.20000194E+02</rscale>
<asrwt>0</asrwt>
<pdfrwt beam="1">  1        4 0.43015341E-02 0.20000194E+02</pdfrwt>
<pdfrwt beam="2">  1       -4 0.55024785E-03 0.20000194E+02</pdfrwt>
<totfact> 0.12375955E+06</totfact>
</mgrwt>
</event>
<event>
 5    1  0.1158280E-006  0.2000182E+02  0.7818608E-02  0.1745292E+00
          4   -1    0    0  501    0  0.00000000000E+00  0.00000000000E+00  0.37158817494E+01  0.39779614347E+01  0.14200000000E+01 0.  1.
         -4   -1    0    0    0  501 -0.00000000000E+00 -0.00000000000E+00 -0.25717208665E+02  0.25756382151E+02  0.14200000000E+01 0. -1.
       1023    2    1    2    0    0  0.00000000000E+00  0.00000000000E+00 -0.22001326916E+02  0.29734343586E+02  0.20001819978E+02 0.  0.
        -11    1    3    3    0    0 -0.43522637718E+01  0.90036356224E+01 -0.10848000914E+02  0.14754212227E+02  0.51100000000E-03 0.  1.
         11    1    3    3    0    0  0.43522637718E+01 -0.90036356224E+01 -0.11153326002E+02  0.14980131359E+02  0.51100000000E-03 0. -1.
<mgrwt>
<rscale>  0 0.20001820E+02</rscale>
<asrwt>0</asrwt>
<pdfrwt beam="1">  1        4 0.59484745E-03 0.20001820E+02</pdfrwt>
<pdfrwt beam="2">  1       -4 0.39796669E-02 0.20001820E+02</pdfrwt>
<totfact> 0.12467333E+06</totfact>
</mgrwt>
</event>
<event>
 5    1  0.1154861E-006  0.2000108E+02  0.7818608E-02  0.1745307E+00
          4   -1    0    0  501    0  0.00000000000E+00  0.00000000000E+00  0.76491154244E+02  0.76504333717E+02  0.14200000000E+01 0. -1.
         -4   -1    0    0    0  501 -0.00000000000E+00 -0.00000000000E+00 -0.90463569666E+00  0.16836762586E+01  0.14200000000E+01 0.  1.
       1023    2    1    2    0    0  0.00000000000E+00  0.00000000000E+00  0.75586518547E+02  0.78188009976E+02  0.20001077919E+02 0.  0.
        -11    1    3    3    0    0  0.95489718114E+01 -0.29700308365E+01  0.37470108582E+02  0.38781606249E+02  0.51100000000E-03 0.  1.
         11    1    3    3    0    0 -0.95489718114E+01  0.29700308365E+01  0.38116409964E+02  0.39406403727E+02  0.51100000000E-03 0. -1.
<mgrwt>
<rscale>  0 0.20001078E+02</rscale>
<asrwt>0</asrwt>
<pdfrwt beam="1">  1        4 0.11828812E-01 0.20001078E+02</pdfrwt>
<pdfrwt beam="2">  1       -4 0.20011468E-03 0.20001078E+02</pdfrwt>
<totfact> 0.10469660E+06</totfact>
</mgrwt>
</event>
<event>
 5    1  0.1204739E-006  0.2000114E+02  0.7818608E-02  0.1745305E+00
          4   -1    0    0  501    0  0.00000000000E+00  0.00000000000E+00  0.13619962926E+02  0.13693786551E+02  0.14200000000E+01 0. -1.
         -4   -1    0    0    0  501 -0.00000000000E+00 -0.00000000000E+00 -0.71796069683E+01  0.73186854161E+01  0.14200000000E+01 0.  1.
       1023    2    1    2    0    0  0.00000000000E+00  0.00000000000E+00  0.64403559580E+01  0.21012471967E+02  0.20001144800E+02 0.  0.
        -11    1    3    3    0    0  0.39096524974E+00 -0.99926567453E+01  0.31429389694E+01  0.10482562105E+02  0.51100000000E-03 0.  1.
         11    1    3    3    0    0 -0.39096524974E+00  0.99926567453E+01  0.32974169886E+01  0.10529909863E+02  0.51100000000E-03 0. -1.
<mgrwt>
<rscale>  0 0.20001145E+02</rscale>
<asrwt>0</asrwt>
<pdfrwt beam="1">  1        4 0.21117560E-02 0.20001145E+02</pdfrwt>
<pdfrwt beam="2">  1       -4 0.11209320E-02 0.20001145E+02</pdfrwt>
<totfact> 0.12952501E+06</totfact>
</mgrwt>
</event>
<event>
 5    1  0.1154861E-006  0.2000054E+02  0.7818608E-02  0.1745317E+00
         -4   -1    0    0    0  501 -0.00000000000E+00  0.00000000000E+00  0.21299849324E+02  0.21347130515E+02  0.14200000000E+01 0.  1.
          4   -1    0    0  501    0  0.00000000000E+00 -0.00000000000E+00 -0.45339335274E+01  0.47511002127E+01  0.14200000000E+01 0. -1.
       1023    2    1    2    0    0  0.00000000000E+00  0.00000000000E+00  0.16765915797E+02  0.26098230728E+02  0.20000542858E+02 0.  0.
        -11    1    3    3    0    0 -0.58067645399E+01 -0.81414470660E+01  0.84629037271E+01  0.13100473828E+02  0.51100000000E-03 0.  1.
         11    1    3    3    0    0  0.58067645399E+01  0.81414470660E+01  0.83030120697E+01  0.12997756900E+02  0.51100000000E-03 0. -1.
<mgrwt>
<rscale>  0 0.20000543E+02</rscale>
<asrwt>0</asrwt>
<pdfrwt beam="2">  1        4 0.71787037E-03 0.20000543E+02</pdfrwt>
<pdfrwt beam="1">  1       -4 0.32972421E-02 0.20000543E+02</pdfrwt>
<totfact> 0.12664065E+06</totfact>
</mgrwt>
</event>
<event>
 4    1  0.1154861E-006  0.2002147E+02  0.7818608E-02  0.1744902E+00
          4   -1    0    0  501    0  0.00000000000E+00  0.00000000000E+00  0.10497781366E+03  0.10498741715E+03  0.14200000000E+01 0. -1.
         -4   -1    0    0    0  501 -0.00000000000E+00 -0.00000000000E+00 -0.41149305566E+00  0.14784202836E+01  0.14200000000E+01 0.  1.
        -11    1    1    2    0    0  0.73480437228E+01  0.67982255169E+01  0.52665405072E+02  0.53608343645E+02  0.51100000000E-03 0. -1.
         11    1    1    2    0    0 -0.73480437228E+01 -0.67982255169E+01  0.51900915532E+02  0.52857493793E+02  0.51100000000E-03 0.  1.
<mgrwt>
<rscale>  0 0.20021467E+02</rscale>
<asrwt>0</asrwt>
<pdfrwt beam="1">  1        4 0.16233245E-01 0.20021467E+02</pdfrwt>
<pdfrwt beam="2">  1       -4 0.14611666E-03 0.20021467E+02</pdfrwt>
<totfact> 0.96003271E+05</totfact>
</mgrwt>
</event>
<event>
 5    1  0.1154861E-006  0.2000089E+02  0.7818608E-02  0.1745310E+00
         -4   -1    0    0    0  501 -0.00000000000E+00  0.00000000000E+00  0.37738093141E+02  0.37764799403E+02  0.14200000000E+01 0. -1.
          4   -1    0    0  501    0  0.00000000000E+00 -0.00000000000E+00 -0.24301345884E+01  0.28145966172E+01  0.14200000000E+01 0.  1.
       1023    2    1    2    0    0  0.00000000000E+00  0.00000000000E+00  0.35307958553E+02  0.40579396020E+02  0.20000886085E+02 0.  0.
        -11    1    3    3    0    0  0.71867400421E+01 -0.69536169750E+01  0.17821767974E+02  0.20435690237E+02  0.51100000000E-03 0. -1.
         11    1    3    3    0    0 -0.71867400421E+01  0.69536169750E+01  0.17486190578E+02  0.20143705783E+02  0.51100000000E-03 0.  1.
<mgrwt>
<rscale>  0 0.20000886E+02</rscale>
<asrwt>0</asrwt>
<pdfrwt beam="2">  1        4 0.40549522E-03 0.20000886E+02</pdfrwt>
<pdfrwt beam="1">  1       -4 0.58374883E-02 0.20000886E+02</pdfrwt>
<totfact> 0.11934657E+06</totfact>
</mgrwt>
</event>
<event>
 5    1  0.1154861E-006  0.2000091E+02  0.7818608E-02  0.1745310E+00
          4   -1    0    0  501    0  0.00000000000E+00  0.00000000000E+00  0.63683611191E+02  0.63699440612E+02  0.14200000000E+01 0. -1.
         -4   -1    0    0    0  501 -0.00000000000E+00 -0.00000000000E+00 -0.12300235689E+01  0.18786585587E+01  0.14200000000E+01 0.  1.
       1023    2    1    2    0    0  0.00000000000E+00  0.00000000000E+00  0.62453587622E+02  0.65578099171E+02  0.20000912080E+02 0.  0.
        -11    1    3    3    0    0  0.95300073102E+01  0.30307480396E+01  0.31395505797E+02  0.32949723178E+02  0.51100000000E-03 0.  1.
         11    1    3    3    0    0 -0.95300073102E+01 -0.30307480396E+01  0.31058081825E+02  0.32628375993E+02  0.51100000000E-03 0. -1.
<mgrwt>
<rscale>  0 0.20000912E+02</rscale>
<asrwt>0</asrwt>
<pdfrwt beam="1">  1        4 0.98485888E-02 0.20000912E+02</pdfrwt>
<pdfrwt beam="2">  1       -4 0.24034710E-03 0.20000912E+02</pdfrwt>
<totfact> 0.10908754E+06</totfact>
</mgrwt>
</event>
<event>
 5    1  0.1154861E-006  0.2000345E+02  0.7818608E-02  0.1745259E+00
          4   -1    0    0  501    0  0.00000000000E+00  0.00000000000E+00  0.48085676454E+01  0.50138530892E+01  0.14200000000E+01 0.  1.
         -4   -1    0    0    0  501 -0.00000000000E+00 -0.00000000000E+00 -0.20137798841E+02  0.20187801816E+02  0.14200000000E+01 0. -1.
       1023    2    1    2    0    0  0.00000000000E+00  0.00000000000E+00 -0.15329231195E+02  0.25201654905E+02  0.20003451725E+02 0.  0.
        -11    1    3    3    0    0  0.44048673336E+01 -0.89789761974E+01 -0.77883789149E+01  0.12676108084E+02  0.51100000000E-03 0.  1.
         11    1    3    3    0    0 -0.44048673336E+01  0.89789761974E+01 -0.75408522805E+01  0.12525546821E+02  0.51100000000E-03 0. -1.
<mgrwt>
<rscale>  0 0.20003452E+02</rscale>
<asrwt>0</asrwt>
<pdfrwt beam="1">  1        4 0.75941722E-03 0.20003452E+02</pdfrwt>
<pdfrwt beam="2">  1       -4 0.31177604E-02 0.20003452E+02</pdfrwt>
<totfact> 0.12709890E+06</totfact>
</mgrwt>
</event>
<event>
 4    1  0.1154861E-006  0.2008056E+02  0.7818608E-02  0.1743731E+00
         -4   -1    0    0    0  501 -0.00000000000E+00  0.00000000000E+00  0.54481354346E+02  0.54499856618E+02  0.14200000000E+01 0. -1.
          4   -1    0    0  501    0  0.00000000000E+00 -0.00000000000E+00 -0.15561964082E+01  0.21066910691E+01  0.14200000000E+01 0.  1.
        -11    1    1    2    0    0  0.31074069354E+01  0.95364082570E+01  0.25176422919E+02  0.27100762564E+02  0.51100000000E-03 0.  1.
         11    1    1    2    0    0 -0.31074069354E+01 -0.95364082570E+01  0.27748735019E+02  0.29505785123E+02  0.51100000000E-03 0. -1.
<mgrwt>
<rscale>  0 0.20080560E+02</rscale>
<asrwt>0</asrwt>
<pdfrwt beam="2">  1        4 0.28318381E-03 0.20080560E+02</pdfrwt>
<pdfrwt beam="1">  1       -4 0.84255163E-02 0.20080560E+02</pdfrwt>
<totfact> 0.11160200E+06</totfact>
</mgrwt>
</event>
<event>
 5    1  0.1154861E-006  0.2000317E+02  0.7818608E-02  0.1745265E+00
         -4   -1    0    0    0  501 -0.00000000000E+00  0.00000000000E+00  0.58092623309E+02  0.58109975761E+02  0.14200000000E+01 0.  1.
          4   -1    0    0  501    0  0.00000000000E+00 -0.00000000000E+00 -0.14084960697E+01  0.20000652935E+01  0.14200000000E+01 0. -1.
       1023    2    1    2    0    0  0.00000000000E+00  0.00000000000E+00  0.56684127239E+02  0.60110041054E+02  0.20003168616E+02 0.  0.
        -11    1    3    3    0    0 -0.30418944010E+01 -0.95261839534E+01  0.27818238852E+02  0.29561050646E+02  0.51100000000E-03 0.  1.
         11    1    3    3    0    0  0.30418944010E+01  0.95261839534E+01  0.28865888388E+02  0.30548990408E+02  0.51100000000E-03 0. -1.
<mgrwt>
<rscale>  0 0.20003169E+02</rscale>
<asrwt>0</asrwt>
<pdfrwt beam="2">  1        4 0.26353185E-03 0.20003169E+02</pdfrwt>
<pdfrwt beam="1">  1       -4 0.89841661E-02 0.20003169E+02</pdfrwt>
<totfact> 0.11111090E+06</totfact>
</mgrwt>
</event>
<event>
 4    1  0.1154861E-006  0.2001470E+02  0.7818608E-02  0.1745036E+00
         -4   -1    0    0    0  501 -0.00000000000E+00  0.00000000000E+00  0.41293536544E+01  0.43666877153E+01  0.14200000000E+01 0.  1.
          4   -1    0    0  501    0  0.00000000000E+00 -0.00000000000E+00 -0.23315448674E+02  0.23358650365E+02  0.14200000000E+01 0. -1.
        -11    1    1    2    0    0 -0.27885208086E+01  0.96109176300E+01 -0.96457259266E+01  0.13899122811E+02  0.51100000000E-03 0.  1.
         11    1    1    2    0    0  0.27885208086E+01 -0.96109176300E+01 -0.95403690931E+01  0.13826215270E+02  0.51100000000E-03 0. -1.
<mgrwt>
<rscale>  0 0.20014698E+02</rscale>
<asrwt>0</asrwt>
<pdfrwt beam="2">  1        4 0.36085717E-02 0.20014698E+02</pdfrwt>
<pdfrwt beam="1">  1       -4 0.65686486E-03 0.20014698E+02</pdfrwt>
<totfact> 0.12557519E+06</totfact>
</mgrwt>
</event>
<event>
 4    1  0.1154861E-006  0.2002567E+02  0.7818608E-02  0.1744818E+00
          4   -1    0    0  501    0  0.00000000000E+00  0.00000000000E+00  0.26241726645E+01  0.29837362774E+01  0.14200000000E+01 0. -1.
         -4   -1    0    0    0  501 -0.00000000000E+00 -0.00000000000E+00 -0.35380793150E+02  0.35409277370E+02  0.14200000000E+01 0.  1.
        -11    1    1    2    0    0 -0.92290230872E+01 -0.38577341951E+01 -0.17235376478E+02  0.19927749066E+02  0.51100000000E-03 0.  1.
         11    1    1    2    0    0  0.92290230872E+01  0.38577341951E+01 -0.15521244007E+02  0.18465264581E+02  0.51100000000E-03 0. -1.
<mgrwt>
<rscale>  0 0.20025666E+02</rscale>
<asrwt>0</asrwt>
<pdfrwt beam="1">  1        4 0.43356873E-03 0.20025666E+02</pdfrwt>
<pdfrwt beam="2">  1       -4 0.54730485E-02 0.20025666E+02</pdfrwt>
<totfact> 0.12006840E+06</totfact>
</mgrwt>
</event>
<event>
 5    1  0.1154861E-006  0.2000916E+02  0.7818608E-02  0.1745146E+00
         -4   -1    0    0    0  501 -0.00000000000E+00  0.00000000000E+00  0.17069576240E+02  0.17128538555E+02  0.14200000000E+01 0. -1.
          4   -1    0    0  501    0  0.00000000000E+00 -0.00000000000E+00 -0.57075245241E+01  0.58815164875E+01  0.14200000000E+01 0.  1.
       1023    2    1    2    0    0  0.00000000000E+00  0.00000000000E+00  0.11362051716E+02  0.23010055042E+02  0.20009158249E+02 0.  0.
        -11    1    3    3    0    0  0.34365204992E+01 -0.93947748473E+01  0.58442075413E+01  0.11585604413E+02  0.51100000000E-03 0.  1.
         11    1    3    3    0    0 -0.34365204992E+01  0.93947748473E+01  0.55178441747E+01  0.11424450629E+02  0.51100000000E-03 0. -1.
<mgrwt>
<rscale>  0 0.20009158E+02</rscale>
<asrwt>0</asrwt>
<pdfrwt beam="2">  1        4 0.89600024E-03 0.20009158E+02</pdfrwt>
<pdfrwt beam="1">  1       -4 0.26440082E-02 0.20009158E+02</pdfrwt>
<totfact> 0.12826026E+06</totfact>
</mgrwt>
</event>
<event>
 5    1  0.1189900E-006  0.2000107E+02  0.7818608E-02  0.1745307E+00
         -4   -1    0    0    0  501 -0.00000000000E+00  0.00000000000E+00  0.30407480151E+01  0.33559720635E+01  0.14200000000E+01 0.  1.
          4   -1    0    0  501    0  0.00000000000E+00 -0.00000000000E+00 -0.30937050276E+02  0.30969621887E+02  0.14200000000E+01 0. -1.
       1023    2    1    2    0    0  0.00000000000E+00  0.00000000000E+00 -0.27896302261E+02  0.34325593950E+02  0.20001067976E+02 0.  0.
        -11    1    3    3    0    0  0.97253118466E+01  0.23293456437E+01 -0.14044290482E+02  0.17240929124E+02  0.51100000000E-03 0. -1.
         11    1    3    3    0    0 -0.97253118466E+01 -0.23293456437E+01 -0.13852011779E+02  0.17084664827E+02  0.51100000000E-03 0.  1.
<mgrwt>
<rscale>  0 0.20001068E+02</rscale>
<asrwt>0</asrwt>
<pdfrwt beam="2">  1        4 0.47862995E-02 0.20001068E+02</pdfrwt>
<pdfrwt beam="1">  1       -4 0.49456092E-03 0.20001068E+02</pdfrwt>
<totfact> 0.12234021E+06</totfact>
</mgrwt>
</event>
<event>
 5    1  0.1163399E-006  0.2000041E+02  0.7818608E-02  0.1745320E+00
         -4   -1    0    0    0  501 -0.00000000000E+00  0.00000000000E+00  0.62091525788E+01  0.63694564719E+01  0.14200000000E+01 0.  1.
          4   -1    0    0  501    0  0.00000000000E+00 -0.00000000000E+00 -0.15707921583E+02  0.15771975161E+02  0.14200000000E+01 0. -1.
       1023    2    1    2    0    0  0.00000000000E+00  0.00000000000E+00 -0.94987690045E+01  0.22141431633E+02  0.20000409549E+02 0.  0.
        -11    1    3    3    0    0  0.95329114639E+01 -0.30209616354E+01 -0.47920467235E+01  0.11089018092E+02  0.51100000000E-03 0. -1.
         11    1    3    3    0    0 -0.95329114639E+01  0.30209616354E+01 -0.47067222810E+01  0.11052413541E+02  0.51100000000E-03 0.  1.
<mgrwt>
<rscale>  0 0.20000410E+02</rscale>
<asrwt>0</asrwt>
<pdfrwt beam="2">  1        4 0.24338616E-02 0.20000410E+02</pdfrwt>
<pdfrwt beam="1">  1       -4 0.97251252E-03 0.20000410E+02</pdfrwt>
<totfact> 0.12887484E+06</totfact>
</mgrwt>
</event>
<event>
 5    1  0.1154861E-006  0.2000267E+02  0.7818608E-02  0.1745275E+00
          4   -1    0    0  501    0  0.00000000000E+00  0.00000000000E+00  0.69538118872E+01  0.70973163775E+01  0.14200000000E+01 0. -1.
         -4   -1    0    0    0  501 -0.00000000000E+00 -0.00000000000E+00 -0.14057896306E+02  0.14129431996E+02  0.14200000000E+01 0.  1.
       1023    2    1    2    0    0  0.00000000000E+00  0.00000000000E+00 -0.71040844185E+01  0.21226748374E+02  0.20002670599E+02 0.  0.
        -11    1    3    3    0    0 -0.91026442690E+01 -0.41428877645E+01 -0.36274976027E+01  0.10638627300E+02  0.51100000000E-03 0. -1.
         11    1    3    3    0    0  0.91026442690E+01  0.41428877645E+01 -0.34765868157E+01  0.10588121073E+02  0.51100000000E-03 0.  1.
<mgrwt>
<rscale>  0 0.20002671E+02</rscale>
<asrwt>0</asrwt>
<pdfrwt beam="1">  1        4 0.10863588E-02 0.20002671E+02</pdfrwt>
<pdfrwt beam="2">  1       -4 0.21792948E-02 0.20002671E+02</pdfrwt>
<totfact> 0.12937868E+06</totfact>
</mgrwt>
</event>
<event>
 5    1  0.1154861E-006  0.2000042E+02  0.7818608E-02  0.1745320E+00
         -4   -1    0    0    0  501 -0.00000000000E+00  0.00000000000E+00  0.59373132928E+02  0.59390111245E+02  0.14200000000E+01 0. -1.
          4   -1    0    0  501    0  0.00000000000E+00 -0.00000000000E+00 -0.13646852290E+01  0.19694582439E+01  0.14200000000E+01 0.  1.
       1023    2    1    2    0    0  0.00000000000E+00  0.00000000000E+00  0.58008447699E+02  0.61359569488E+02  0.20000419081E+02 0.  0.
        -11    1    3    3    0    0 -0.99929486868E+01 -0.37917673391E+00  0.29118691886E+02  0.30788001167E+02  0.51100000000E-03 0. -1.
         11    1    3    3    0    0  0.99929486868E+01  0.37917673391E+00  0.28889755813E+02  0.30571568322E+02  0.51100000000E-03 0.  1.
<mgrwt>
<rscale>  0 0.20000419E+02</rscale>
<asrwt>0</asrwt>
<pdfrwt beam="2">  1        4 0.25777864E-03 0.20000419E+02</pdfrwt>
<pdfrwt beam="1">  1       -4 0.91821537E-02 0.20000419E+02</pdfrwt>
<totfact> 0.11066497E+06</totfact>
</mgrwt>
</event>
<event>
 5    1  0.1206349E-006  0.2000114E+02  0.7818608E-02  0.1745305E+00
         -4   -1    0    0    0  501 -0.00000000000E+00  0.00000000000E+00  0.83068554381E+01  0.84273511419E+01  0.14200000000E+01 0.  1.
          4   -1    0    0  501    0  0.00000000000E+00 -0.00000000000E+00 -0.11789529101E+02  0.11874737742E+02  0.14200000000E+01 0. -1.
       1023    2    1    2    0    0  0.00000000000E+00  0.00000000000E+00 -0.34826736633E+01  0.20302088884E+02  0.20001144897E+02 0.  0.
        -11    1    3    3    0    0 -0.22721312845E+01  0.97386279236E+01 -0.16505788135E+01  0.10135475573E+02  0.51100000000E-03 0.  1.
         11    1    3    3    0    0  0.22721312845E+01 -0.97386279236E+01 -0.18320948499E+01  0.10166613311E+02  0.51100000000E-03 0. -1.
<mgrwt>
<rscale>  0 0.20001145E+02</rscale>
<asrwt>0</asrwt>
<pdfrwt beam="2">  1        4 0.18295971E-02 0.20001145E+02</pdfrwt>
<pdfrwt beam="1">  1       -4 0.12938012E-02 0.20001145E+02</pdfrwt>
<totfact> 0.12994546E+06</totfact>
</mgrwt>
</event>
<event>
 5    1  0.1154861E-006  0.2000366E+02  0.7818608E-02  0.1745255E+00
         -4   -1    0    0    0  501 -0.00000000000E+00  0.00000000000E+00  0.75390408342E+01  0.76716058749E+01  0.14200000000E+01 0.  1.
          4   -1    0    0  501    0  0.00000000000E+00 -0.00000000000E+00 -0.12981874399E+02  0.13059305606E+02  0.14200000000E+01 0. -1.
       1023    2    1    2    0    0  0.00000000000E+00  0.00000000000E+00 -0.54428335650E+01  0.20730911481E+02  0.20003656006E+02 0.  0.
        -11    1    3    3    0    0  0.50428511674E+01  0.86373247553E+01 -0.27766101206E+01  0.10379946572E+02  0.51100000000E-03 0. -1.
         11    1    3    3    0    0 -0.50428511674E+01 -0.86373247553E+01 -0.26662234444E+01  0.10350964909E+02  0.51100000000E-03 0.  1.
<mgrwt>
<rscale>  0 0.20003656E+02</rscale>
<asrwt>0</asrwt>
<pdfrwt beam="2">  1        4 0.20133650E-02 0.20003656E+02</pdfrwt>
<pdfrwt beam="1">  1       -4 0.11760060E-02 0.20003656E+02</pdfrwt>
<totfact> 0.12965836E+06</totfact>
</mgrwt>
</event>
<event>
 5    1  0.1154861E-006  0.2000037E+02  0.7818608E-02  0.1745321E+00
          4   -1    0    0  501    0  0.00000000000E+00  0.00000000000E+00  0.56761995356E+02  0.56779754462E+02  0.14200000000E+01 0. -1.
         -4   -1    0    0    0  501 -0.00000000000E+00 -0.00000000000E+00 -0.14546339625E+01  0.20328206918E+01  0.14200000000E+01 0.  1.
       1023    2    1    2    0    0  0.00000000000E+00  0.00000000000E+00  0.55307361393E+02  0.58812575154E+02  0.20000369295E+02 0.  0.
        -11    1    3    3    0    0 -0.63190967244E+01 -0.77504942249E+01  0.27802131103E+02  0.29545890379E+02  0.51100000000E-03 0. -1.
         11    1    3    3    0    0  0.63190967244E+01  0.77504942249E+01  0.27505230290E+02  0.29266684775E+02  0.51100000000E-03 0.  1.
<mgrwt>
<rscale>  0 0.20000369E+02</rscale>
<asrwt>0</asrwt>
<pdfrwt beam="1">  1        4 0.87784563E-02 0.20000369E+02</pdfrwt>
<pdfrwt beam="2">  1       -4 0.26963184E-03 0.20000369E+02</pdfrwt>
<totfact> 0.11164226E+06</totfact>
</mgrwt>
</event>
<event>
 5    1  0.1154861E-006  0.2000246E+02  0.7818608E-02  0.1745279E+00
          4   -1    0    0  501    0  0.00000000000E+00  0.00000000000E+00  0.16811912723E+01  0.22006372018E+01  0.14200000000E+01 0. -1.
         -4   -1    0    0    0  501 -0.00000000000E+00 -0.00000000000E+00 -0.51004141161E+02  0.51023904354E+02  0.14200000000E+01 0.  1.
       1023    2    1    2    0    0  0.00000000000E+00  0.00000000000E+00 -0.49322949889E+02  0.53224541556E+02  0.20002460802E+02 0.  0.
        -11    1    3    3    0    0  0.45690214708E+01  0.88962588035E+01 -0.24853933172E+02  0.26790620976E+02  0.51100000000E-03 0. -1.
         11    1    3    3    0    0 -0.45690214708E+01 -0.88962588035E+01 -0.24469016716E+02  0.26433920580E+02  0.51100000000E-03 0.  1.
<mgrwt>
<rscale>  0 0.20002461E+02</rscale>
<asrwt>0</asrwt>
<pdfrwt beam="1">  1        4 0.30012248E-03 0.20002461E+02</pdfrwt>
<pdfrwt beam="2">  1       -4 0.78882675E-02 0.20002461E+02</pdfrwt>
<totfact> 0.11383877E+06</totfact>
</mgrwt>
</event>
<event>
 5    1  0.1154861E-006  0.2000070E+02  0.7818608E-02  0.1745314E+00
         -4   -1    0    0    0  501 -0.00000000000E+00  0.00000000000E+00  0.13368211213E+01  0.19502540117E+01  0.14200000000E+01 0. -1.
          4   -1    0    0  501    0  0.00000000000E+00 -0.00000000000E+00 -0.60225256582E+02  0.60241994741E+02  0.14200000000E+01 0.  1.
       1023    2    1    2    0    0  0.00000000000E+00  0.00000000000E+00 -0.58888435461E+02  0.62192248753E+02  0.20000699335E+02 0.  0.
        -11    1    3    3    0    0 -0.99826060352E+01  0.59151014204E+00 -0.29657070313E+02  0.31297669678E+02  0.51100000000E-03 0. -1.
         11    1    3    3    0    0  0.99826060352E+01 -0.59151014204E+00 -0.29231365148E+02  0.30894579075E+02  0.51100000000E-03 0.  1.
<mgrwt>
<rscale>  0 0.20000699E+02</rscale>
<asrwt>0</asrwt>
<pdfrwt beam="2">  1        4 0.93138971E-02 0.20000699E+02</pdfrwt>
<pdfrwt beam="1">  1       -4 0.25413953E-03 0.20000699E+02</pdfrwt>
<totfact> 0.11034707E+06</totfact>
</mgrwt>
</event>
<event>
 5    1  0.1154861E-006  0.2000069E+02  0.7818608E-02  0.1745314E+00
          4   -1    0    0  501    0  0.00000000000E+00  0.00000000000E+00  0.19457723908E+01  0.24088234051E+01  0.14200000000E+01 0. -1.
         -4   -1    0    0    0  501 -0.00000000000E+00 -0.00000000000E+00 -0.45456354478E+02  0.45478528587E+02  0.14200000000E+01 0.  1.
       1023    2    1    2    0    0  0.00000000000E+00  0.00000000000E+00 -0.43510582087E+02  0.47887351992E+02  0.20000693169E+02 0.  0.
        -11    1    3    3    0    0 -0.91864749547E+01 -0.39515129405E+01 -0.21673922775E+02  0.23869744560E+02  0.51100000000E-03 0.  1.
         11    1    3    3    0    0  0.91864749547E+01  0.39515129405E+01 -0.21836659312E+02  0.24017607433E+02  0.51100000000E-03 0. -1.
<mgrwt>
<rscale>  0 0.20000693E+02</rscale>
<asrwt>0</asrwt>
<pdfrwt beam="1">  1        4 0.33667464E-03 0.20000693E+02</pdfrwt>
<pdfrwt beam="2">  1       -4 0.70306096E-02 0.20000693E+02</pdfrwt>
<totfact> 0.11609183E+06</totfact>
</mgrwt>
</event>
<event>
 5    1  0.1154861E-006  0.2000085E+02  0.7818608E-02  0.1745311E+00
          4   -1    0    0  501    0  0.00000000000E+00  0.00000000000E+00  0.21378788294E+01  0.25665007090E+01  0.14200000000E+01 0. -1.
         -4   -1    0    0    0  501 -0.00000000000E+00 -0.00000000000E+00 -0.42075515200E+02  0.42099470061E+02  0.14200000000E+01 0.  1.
       1023    2    1    2    0    0  0.00000000000E+00  0.00000000000E+00 -0.39937636371E+02  0.44665970770E+02  0.20000853629E+02 0.  0.
        -11    1    3    3    0    0  0.10755789671E+01 -0.99423755388E+01 -0.19904296754E+02  0.22275294185E+02  0.51100000000E-03 0. -1.
         11    1    3    3    0    0 -0.10755789671E+01  0.99423755388E+01 -0.20033339617E+02  0.22390676585E+02  0.51100000000E-03 0.  1.
<mgrwt>
<rscale>  0 0.20000854E+02</rscale>
<asrwt>0</asrwt>
<pdfrwt beam="1">  1        4 0.36371806E-03 0.20000854E+02</pdfrwt>
<pdfrwt beam="2">  1       -4 0.65079692E-02 0.20000854E+02</pdfrwt>
<totfact> 0.11749590E+06</totfact>
</mgrwt>
</event>
<event>
 5    1  0.1157417E-006  0.2000178E+02  0.7818608E-02  0.1745293E+00
          4   -1    0    0  501    0  0.00000000000E+00  0.00000000000E+00  0.16454267013E+02  0.16515426211E+02  0.14200000000E+01 0. -1.
         -4   -1    0    0    0  501 -0.00000000000E+00 -0.00000000000E+00 -0.59220109350E+01  0.60898779556E+01  0.14200000000E+01 0.  1.
       1023    2    1    2    0    0  0.00000000000E+00  0.00000000000E+00  0.10532256077E+02  0.22605304166E+02  0.20001783880E+02 0.  0.
        -11    1    3    3    0    0 -0.92609598551E+01  0.37733888650E+01  0.53998430924E+01  0.11364952558E+02  0.51100000000E-03 0. -1.
         11    1    3    3    0    0  0.92609598551E+01 -0.37733888650E+01  0.51324129851E+01  0.11240351608E+02  0.51100000000E-03 0.  1.
<mgrwt>
<rscale>  0 0.20001784E+02</rscale>
<asrwt>0</asrwt>
<pdfrwt beam="1">  1        4 0.25490430E-02 0.20001784E+02</pdfrwt>
<pdfrwt beam="2">  1       -4 0.92869603E-03 0.20001784E+02</pdfrwt>
<totfact> 0.12858894E+06</totfact>
</mgrwt>
</event>
<event>
 4    1  0.1154861E-006  0.2002830E+02  0.7818608E-02  0.1744766E+00
         -4   -1    0    0    0  501 -0.00000000000E+00  0.00000000000E+00  0.35124866893E+01  0.37886623949E+01  0.14200000000E+01 0.  1.
          4   -1    0    0  501    0  0.00000000000E+00 -0.00000000000E+00 -0.27175123504E+02  0.27212198321E+02  0.14200000000E+01 0. -1.
        -11    1    1    2    0    0  0.73237277632E+01  0.68263575656E+01 -0.12167240910E+02  0.15756836535E+02  0.51100000000E-03 0. -1.
         11    1    1    2    0    0 -0.73237277632E+01 -0.68263575656E+01 -0.11495395905E+02  0.15244024181E+02  0.51100000000E-03 0.  1.
<mgrwt>
<rscale>  0 0.20028305E+02</rscale>
<asrwt>0</asrwt>
<pdfrwt beam="2">  1        4 0.42048843E-02 0.20028305E+02</pdfrwt>
<pdfrwt beam="1">  1       -4 0.56447878E-03 0.20028305E+02</pdfrwt>
<totfact> 0.12368207E+06</totfact>
</mgrwt>
</event>
<event>
 5    1  0.1154861E-006  0.2000044E+02  0.7818608E-02  0.1745319E+00
         -4   -1    0    0    0  501 -0.00000000000E+00  0.00000000000E+00  0.13102817683E+01  0.19321589770E+01  0.14200000000E+01 0.  1.
          4   -1    0    0  501    0  0.00000000000E+00 -0.00000000000E+00 -0.61052901165E+02  0.61069412480E+02  0.14200000000E+01 0. -1.
       1023    2    1    2    0    0  0.00000000000E+00  0.00000000000E+00 -0.59742619397E+02  0.63001571457E+02  0.20000435837E+02 0.  0.
        -11    1    3    3    0    0  0.97230614371E+01 -0.23375781949E+01 -0.30017798071E+02  0.31639696534E+02  0.51100000000E-03 0. -1.
         11    1    3    3    0    0 -0.97230614371E+01  0.23375781949E+01 -0.29724821327E+02  0.31361874923E+02  0.51100000000E-03 0.  1.
<mgrwt>
<rscale>  0 0.20000436E+02</rscale>
<asrwt>0</asrwt>
<pdfrwt beam="2">  1        4 0.94418590E-02 0.20000436E+02</pdfrwt>
<pdfrwt beam="1">  1       -4 0.25068867E-03 0.20000436E+02</pdfrwt>
<totfact> 0.11004618E+06</totfact>
</mgrwt>
</event>
<event>
 5    1  0.1154861E-006  0.2000871E+02  0.7818608E-02  0.1745155E+00
          4   -1    0    0  501    0  0.00000000000E+00  0.00000000000E+00  0.71837724829E+01  0.73227718172E+01  0.14200000000E+01 0. -1.
         -4   -1    0    0    0  501 -0.00000000000E+00 -0.00000000000E+00 -0.13622638309E+02  0.13696447513E+02  0.14200000000E+01 0.  1.
       1023    2    1    2    0    0  0.00000000000E+00  0.00000000000E+00 -0.64388658257E+01  0.21019219331E+02  0.20008712806E+02 0.  0.
        -11    1    3    3    0    0  0.92216228579E+01  0.38791650288E+01 -0.31879647384E+01  0.10499969947E+02  0.51100000000E-03 0.  1.
         11    1    3    3    0    0 -0.92216228579E+01 -0.38791650288E+01 -0.32509010873E+01  0.10519249384E+02  0.51100000000E-03 0. -1.
<mgrwt>
<rscale>  0 0.20008713E+02</rscale>
<asrwt>0</asrwt>
<pdfrwt beam="1">  1        4 0.11215657E-02 0.20008713E+02</pdfrwt>
<pdfrwt beam="2">  1       -4 0.21121604E-02 0.20008713E+02</pdfrwt>
<totfact> 0.12942109E+06</totfact>
</mgrwt>
</event>
<event>
 5    1  0.1154861E-006  0.2001102E+02  0.7818608E-02  0.1745109E+00
         -4   -1    0    0    0  501 -0.00000000000E+00  0.00000000000E+00  0.40802264643E+02  0.40826966579E+02  0.14200000000E+01 0. -1.
          4   -1    0    0  501    0  0.00000000000E+00 -0.00000000000E+00 -0.22204223577E+01  0.26356546524E+01  0.14200000000E+01 0.  1.
       1023    2    1    2    0    0  0.00000000000E+00  0.00000000000E+00  0.38581842286E+02  0.43462621231E+02  0.20011019218E+02 0.  0.
        -11    1    3    3    0    0 -0.73510799403E+01 -0.67845867432E+01  0.18849913049E+02  0.21339826986E+02  0.51100000000E-03 0.  1.
         11    1    3    3    0    0  0.73510799403E+01  0.67845867432E+01  0.19731929236E+02  0.22122794245E+02  0.51100000000E-03 0. -1.
<mgrwt>
<rscale>  0 0.20011019E+02</rscale>
<asrwt>0</asrwt>
<pdfrwt beam="2">  1        4 0.37544453E-03 0.20011019E+02</pdfrwt>
<pdfrwt beam="1">  1       -4 0.63111126E-02 0.20011019E+02</pdfrwt>
<totfact> 0.11791193E+06</totfact>
</mgrwt>
</event>
<event>
 5    1  0.1190721E-006  0.2000113E+02  0.7818608E-02  0.1745306E+00
         -4   -1    0    0    0  501 -0.00000000000E+00  0.00000000000E+00  0.30747878799E+02  0.30780650588E+02  0.14200000000E+01 0. -1.
          4   -1    0    0  501    0  0.00000000000E+00 -0.00000000000E+00 -0.30613870042E+01  0.33746837466E+01  0.14200000000E+01 0.  1.
       1023    2    1    2    0    0  0.00000000000E+00  0.00000000000E+00  0.27686491795E+02  0.34155334335E+02  0.20001125859E+02 0.  0.
        -11    1    3    3    0    0  0.99385236772E+01  0.11101239579E+01  0.13727041971E+02  0.16983471660E+02  0.51100000000E-03 0. -1.
         11    1    3    3    0    0 -0.99385236772E+01 -0.11101239579E+01  0.13959449823E+02  0.17171862675E+02  0.51100000000E-03 0.  1.
<mgrwt>
<rscale>  0 0.20001126E+02</rscale>
<asrwt>0</asrwt>
<pdfrwt beam="2">  1        4 0.49760326E-03 0.20001126E+02</pdfrwt>
<pdfrwt beam="1">  1       -4 0.47570636E-02 0.20001126E+02</pdfrwt>
<totfact> 0.12242412E+06</totfact>
</mgrwt>
</event>
<event>
 5    1  0.1213660E-006  0.2000115E+02  0.7818608E-02  0.1745305E+00
          4   -1    0    0  501    0  0.00000000000E+00  0.00000000000E+00  0.16391249829E+02  0.16452643281E+02  0.14200000000E+01 0. -1.
         -4   -1    0    0    0  501 -0.00000000000E+00 -0.00000000000E+00 -0.59449414697E+01  0.61121787505E+01  0.14200000000E+01 0.  1.
       1023    2    1    2    0    0  0.00000000000E+00  0.00000000000E+00  0.10446308359E+02  0.22564822032E+02  0.20001145842E+02 0.  0.
        -11    1    3    3    0    0  0.76755490357E+01 -0.64099177219E+01  0.53379861902E+01  0.11335572109E+02  0.51100000000E-03 0.  1.
         11    1    3    3    0    0 -0.76755490357E+01  0.64099177219E+01  0.51083221688E+01  0.11229249923E+02  0.51100000000E-03 0. -1.
<mgrwt>
<rscale>  0 0.20001146E+02</rscale>
<asrwt>0</asrwt>
<pdfrwt beam="1">  1        4 0.25393177E-02 0.20001146E+02</pdfrwt>
<pdfrwt beam="2">  1       -4 0.93219337E-03 0.20001146E+02</pdfrwt>
<totfact> 0.12862061E+06</totfact>
</mgrwt>
</event>
<event>
 5    1  0.1154861E-006  0.2000346E+02  0.7818608E-02  0.1745259E+00
          4   -1    0    0  501    0  0.00000000000E+00  0.00000000000E+00  0.18803940029E+01  0.23563279921E+01  0.14200000000E+01 0. -1.
         -4   -1    0    0    0  501 -0.00000000000E+00 -0.00000000000E+00 -0.46734704595E+02  0.46756272452E+02  0.14200000000E+01 0.  1.
       1023    2    1    2    0    0  0.00000000000E+00  0.00000000000E+00 -0.44854310593E+02  0.49112600444E+02  0.20003458293E+02 0.  0.
        -11    1    3    3    0    0 -0.92805013138E+01 -0.37289592389E+01 -0.22324622504E+02  0.24462657497E+02  0.51100000000E-03 0. -1.
         11    1    3    3    0    0  0.92805013138E+01  0.37289592389E+01 -0.22529688089E+02  0.24649942947E+02  0.51100000000E-03 0.  1.
<mgrwt>
<rscale>  0 0.20003458E+02</rscale>
<asrwt>0</asrwt>
<pdfrwt beam="1">  1        4 0.32756079E-03 0.20003458E+02</pdfrwt>
<pdfrwt beam="2">  1       -4 0.72282232E-02 0.20003458E+02</pdfrwt>
<totfact> 0.11553667E+06</totfact>
</mgrwt>
</event>
<event>
 5    1  0.1154861E-006  0.2000938E+02  0.7818608E-02  0.1745142E+00
          4   -1    0    0  501    0  0.00000000000E+00  0.00000000000E+00  0.43096622314E+01  0.45375751839E+01  0.14200000000E+01 0. -1.
         -4   -1    0    0    0  501 -0.00000000000E+00 -0.00000000000E+00 -0.22376145769E+02  0.22421157407E+02  0.14200000000E+01 0.  1.
       1023    2    1    2    0    0  0.00000000000E+00  0.00000000000E+00 -0.18066483538E+02  0.26958732591E+02  0.20009383686E+02 0.  0.
        -11    1    3    3    0    0 -0.89556344415E+01  0.44589360229E+01 -0.89100543070E+01  0.13396811812E+02  0.51100000000E-03 0.  1.
         11    1    3    3    0    0  0.89556344415E+01 -0.44589360229E+01 -0.91564292306E+01  0.13561920779E+02  0.51100000000E-03 0. -1.
<mgrwt>
<rscale>  0 0.20009384E+02</rscale>
<asrwt>0</asrwt>
<pdfrwt beam="1">  1        4 0.68401917E-03 0.20009384E+02</pdfrwt>
<pdfrwt beam="2">  1       -4 0.34634781E-02 0.20009384E+02</pdfrwt>
<totfact> 0.12605700E+06</totfact>
</mgrwt>
</event>
<event>
 5    1  0.1154861E-006  0.2000011E+02  0.7818608E-02  0.1745326E+00
          4   -1    0    0  501    0  0.00000000000E+00  0.00000000000E+00  0.72766415816E+02  0.72780269790E+02  0.14200000000E+01 0.  1.
         -4   -1    0    0    0  501 -0.00000000000E+00 -0.00000000000E+00 -0.98966390532E+00  0.17308479556E+01  0.14200000000E+01 0. -1.
       1023    2    1    2    0    0  0.00000000000E+00  0.00000000000E+00  0.71776751910E+02  0.74511117745E+02  0.20000113821E+02 0.  0.
        -11    1    3    3    0    0  0.77163779453E+01  0.63607043383E+01  0.35923656224E+02  0.37289544447E+02  0.51100000000E-03 0. -1.
         11    1    3    3    0    0 -0.77163779453E+01 -0.63607043383E+01  0.35853095686E+02  0.37221573298E+02  0.51100000000E-03 0.  1.
<mgrwt>
<rscale>  0 0.20000114E+02</rscale>
<asrwt>0</asrwt>
<pdfrwt beam="1">  1        4 0.11252915E-01 0.20000114E+02</pdfrwt>
<pdfrwt beam="2">  1       -4 0.21033581E-03 0.20000114E+02</pdfrwt>
<totfact> 0.10594221E+06</totfact>
</mgrwt>
</event>
<event>
 5    1  0.1154861E-006  0.2000521E+02  0.7818608E-02  0.1745224E+00
          4   -1    0    0  501    0  0.00000000000E+00  0.00000000000E+00  0.45656042909E+02  0.45678120081E+02  0.14200000000E+01 0.  1.
         -4   -1    0    0    0  501 -0.00000000000E+00 -0.00000000000E+00 -0.19363332747E+01  0.24012052288E+01  0.14200000000E+01 0. -1.
       1023    2    1    2    0    0  0.00000000000E+00  0.00000000000E+00  0.43719709635E+02  0.48079325310E+02  0.20005212114E+02 0.  0.
        -11    1    3    3    0    0  0.29404354465E+01 -0.95605926731E+01  0.21937165935E+02  0.24109963550E+02  0.51100000000E-03 0.  1.
         11    1    3    3    0    0 -0.29404354465E+01  0.95605926731E+01  0.21782543700E+02  0.23969361760E+02  0.51100000000E-03 0. -1.
<mgrwt>
<rscale>  0 0.20005212E+02</rscale>
<asrwt>0</asrwt>
<pdfrwt beam="1">  1        4 0.70614640E-02 0.20005212E+02</pdfrwt>
<pdfrwt beam="2">  1       -4 0.33535506E-03 0.20005212E+02</pdfrwt>
<totfact> 0.11595658E+06</totfact>
</mgrwt>
</event>
<event>
 4    1  0.1154861E-006  0.2001501E+02  0.7818608E-02  0.1745030E+00
          4   -1    0    0  501    0  0.00000000000E+00  0.00000000000E+00  0.29909473778E+01  0.33109162202E+01  0.14200000000E+01 0. -1.
         -4   -1    0    0    0  501 -0.00000000000E+00 -0.00000000000E+00 -0.31447502238E+02  0.31479545692E+02  0.14200000000E+01 0.  1.
        -11    1    1    2    0    0 -0.65383232121E+01  0.75700428192E+01 -0.13692628515E+02  0.16957101598E+02  0.51100000000E-03 0. -1.
         11    1    1    2    0    0  0.65383232121E+01 -0.75700428192E+01 -0.14763926345E+02  0.17833360314E+02  0.51100000000E-03 0.  1.
<mgrwt>
<rscale>  0 0.20015013E+02</rscale>
<asrwt>0</asrwt>
<pdfrwt beam="1">  1        4 0.48722364E-03 0.20015013E+02</pdfrwt>
<pdfrwt beam="2">  1       -4 0.48651549E-02 0.20015013E+02</pdfrwt>
<totfact> 0.12193753E+06</totfact>
</mgrwt>
</event>
<event>
 5    1  0.1154861E-006  0.2000027E+02  0.7818608E-02  0.1745323E+00
         -4   -1    0    0    0  501 -0.00000000000E+00  0.00000000000E+00  0.13386775738E+01  0.19515270038E+01  0.14200000000E+01 0. -1.
          4   -1    0    0  501    0  0.00000000000E+00 -0.00000000000E+00 -0.60165327624E+02  0.60182082451E+02  0.14200000000E+01 0.  1.
       1023    2    1    2    0    0  0.00000000000E+00  0.00000000000E+00 -0.58826650050E+02  0.62133609455E+02  0.20000266691E+02 0.  0.
        -11    1    3    3    0    0  0.29573234091E+01 -0.95528282576E+01 -0.29352988643E+02  0.31009679650E+02  0.51100000000E-03 0.  1.
         11    1    3    3    0    0 -0.29573234091E+01  0.95528282576E+01 -0.29473661408E+02  0.31123929805E+02  0.51100000000E-03 0. -1.
<mgrwt>
<rscale>  0 0.20000267E+02</rscale>
<asrwt>0</asrwt>
<pdfrwt beam="2">  1        4 0.93046336E-02 0.20000267E+02</pdfrwt>
<pdfrwt beam="1">  1       -4 0.25438154E-03 0.20000267E+02</pdfrwt>
<totfact> 0.11037396E+06</totfact>
</mgrwt>
</event>
<event>
 5    1  0.1154861E-006  0.2000101E+02  0.7818608E-02  0.1745308E+00
          4   -1    0    0  501    0  0.00000000000E+00  0.00000000000E+00  0.11796769406E+03  0.11797624016E+03  0.14200000000E+01 0. -1.
         -4   -1    0    0    0  501 -0.00000000000E+00 -0.00000000000E+00 -0.23846955848E+00  0.14398846240E+01  0.14200000000E+01 0.  1.
       1023    2    1    2    0    0  0.00000000000E+00  0.00000000000E+00  0.11772922450E+03  0.11941612478E+03  0.20001013880E+02 0.  0.
        -11    1    3    3    0    0  0.86192126424E+01 -0.50714112768E+01  0.58924282348E+02  0.59766889574E+02  0.51100000000E-03 0.  1.
         11    1    3    3    0    0 -0.86192126424E+01  0.50714112768E+01  0.58804942154E+02  0.59649235208E+02  0.51100000000E-03 0. -1.
<mgrwt>
<rscale>  0 0.20001014E+02</rscale>
<asrwt>0</asrwt>
<pdfrwt beam="1">  1        4 0.18241939E-01 0.20001014E+02</pdfrwt>
<pdfrwt beam="2">  1       -4 0.12976164E-03 0.20001014E+02</pdfrwt>
<totfact> 0.92796045E+05</totfact>
</mgrwt>
</event>
<event>
 5    1  0.1154861E-006  0.2000239E+02  0.7818608E-02  0.1745281E+00
         -4   -1    0    0    0  501 -0.00000000000E+00  0.00000000000E+00  0.22994556020E+02  0.23038359459E+02  0.14200000000E+01 0. -1.
          4   -1    0    0  501    0  0.00000000000E+00 -0.00000000000E+00 -0.41846565657E+01  0.44190214497E+01  0.14200000000E+01 0.  1.
       1023    2    1    2    0    0  0.00000000000E+00  0.00000000000E+00  0.18809899454E+02  0.27457380909E+02  0.20002386080E+02 0.  0.
        -11    1    3    3    0    0  0.37295080463E+01  0.92790650750E+01  0.92449661005E+01  0.13619092385E+02  0.51100000000E-03 0. -1.
         11    1    3    3    0    0 -0.37295080463E+01 -0.92790650750E+01  0.95649333538E+01  0.13838288523E+02  0.51100000000E-03 0.  1.
<mgrwt>
<rscale>  0 0.20002386E+02</rscale>
<asrwt>0</asrwt>
<pdfrwt beam="2">  1        4 0.66519089E-03 0.20002386E+02</pdfrwt>
<pdfrwt beam="1">  1       -4 0.35590215E-02 0.20002386E+02</pdfrwt>
<totfact> 0.12587680E+06</totfact>
</mgrwt>
</event>
<event>
 5    1  0.1154861E-006  0.2000034E+02  0.7818608E-02  0.1745321E+00
         -4   -1    0    0    0  501 -0.00000000000E+00  0.00000000000E+00  0.49650332021E+01  0.51641025065E+01  0.14200000000E+01 0. -1.
          4   -1    0    0  501    0  0.00000000000E+00 -0.00000000000E+00 -0.19520323235E+02  0.19571903821E+02  0.14200000000E+01 0.  1.
       1023    2    1    2    0    0  0.00000000000E+00  0.00000000000E+00 -0.14555290032E+02  0.24736006328E+02  0.20000338525E+02 0.  0.
        -11    1    3    3    0    0  0.44017462663E+01  0.89793094559E+01 -0.72826716429E+01  0.12370960958E+02  0.51100000000E-03 0.  1.
         11    1    3    3    0    0 -0.44017462663E+01 -0.89793094559E+01 -0.72726183896E+01  0.12365045370E+02  0.51100000000E-03 0. -1.
<mgrwt>
<rscale>  0 0.20000339E+02</rscale>
<asrwt>0</asrwt>
<pdfrwt beam="2">  1        4 0.30224074E-02 0.20000339E+02</pdfrwt>
<pdfrwt beam="1">  1       -4 0.78313203E-03 0.20000339E+02</pdfrwt>
<totfact> 0.12739918E+06</totfact>
</mgrwt>
</event>
<event>
 5    1  0.1154861E-006  0.2000038E+02  0.7818608E-02  0.1745320E+00
          4   -1    0    0  501    0  0.00000000000E+00  0.00000000000E+00  0.15929039462E+02  0.15992207420E+02  0.14200000000E+01 0. -1.
         -4   -1    0    0    0  501 -0.00000000000E+00 -0.00000000000E+00 -0.61210546679E+01  0.62836064682E+01  0.14200000000E+01 0.  1.
       1023    2    1    2    0    0  0.00000000000E+00  0.00000000000E+00  0.98079847940E+01  0.22275813889E+02  0.20000382963E+02 0.  0.
        -11    1    3    3    0    0 -0.95331185523E+00  0.99545041697E+01  0.48442975770E+01  0.11111623465E+02  0.51100000000E-03 0.  1.
         11    1    3    3    0    0  0.95331185523E+00 -0.99545041697E+01  0.49636872170E+01  0.11164190423E+02  0.51100000000E-03 0. -1.
<mgrwt>
<rscale>  0 0.20000383E+02</rscale>
<asrwt>0</asrwt>
<pdfrwt beam="1">  1        4 0.24679845E-02 0.20000383E+02</pdfrwt>
<pdfrwt beam="2">  1       -4 0.95906379E-03 0.20000383E+02</pdfrwt>
<totfact> 0.12879744E+06</totfact>
</mgrwt>
</event>
<event>
 5    1  0.1154861E-006  0.2000019E+02  0.7818608E-02  0.1745324E+00
          4   -1    0    0  501    0  0.00000000000E+00  0.00000000000E+00  0.76668818214E+02  0.76681967152E+02  0.14200000000E+01 0. -1.
         -4   -1    0    0    0  501 -0.00000000000E+00 -0.00000000000E+00 -0.90058110428E+00  0.16815012118E+01  0.14200000000E+01 0.  1.
       1023    2    1    2    0    0  0.00000000000E+00  0.00000000000E+00  0.75768237110E+02  0.78363468364E+02  0.20000185482E+02 0.  0.
        -11    1    3    3    0    0 -0.10765156000E+01  0.99419667897E+01  0.37820325494E+02  0.39120053812E+02  0.51100000000E-03 0. -1.
         11    1    3    3    0    0  0.10765156000E+01 -0.99419667897E+01  0.37947911616E+02  0.39243414552E+02  0.51100000000E-03 0.  1.
<mgrwt>
<rscale>  0 0.20000185E+02</rscale>
<asrwt>0</asrwt>
<pdfrwt beam="1">  1        4 0.11856286E-01 0.20000185E+02</pdfrwt>
<pdfrwt beam="2">  1       -4 0.19963316E-03 0.20000185E+02</pdfrwt>
<totfact> 0.10464786E+06</totfact>
</mgrwt>
</event>
<event>
 5    1  0.1154861E-006  0.2000052E+02  0.7818608E-02  0.1745318E+00
         -4   -1    0    0    0  501 -0.00000000000E+00  0.00000000000E+00  0.19669463995E+01  0.24259592203E+01  0.14200000000E+01 0. -1.
          4   -1    0    0  501    0  0.00000000000E+00 -0.00000000000E+00 -0.45058975031E+02  0.45081344599E+02  0.14200000000E+01 0.  1.
       1023    2    1    2    0    0  0.00000000000E+00  0.00000000000E+00 -0.43092028632E+02  0.47507303819E+02  0.20000524608E+02 0.  0.
        -11    1    3    3    0    0  0.45872154441E+01  0.88860263288E+01 -0.21462491443E+02  0.23677891559E+02  0.51100000000E-03 0.  1.
         11    1    3    3    0    0 -0.45872154441E+01 -0.88860263288E+01 -0.21629537188E+02  0.23829412261E+02  0.51100000000E-03 0. -1.
<mgrwt>
<rscale>  0 0.20000525E+02</rscale>
<asrwt>0</asrwt>
<pdfrwt beam="2">  1        4 0.69691787E-02 0.20000525E+02</pdfrwt>
<pdfrwt beam="1">  1       -4 0.33963659E-03 0.20000525E+02</pdfrwt>
<totfact> 0.11625730E+06</totfact>
</mgrwt>
</event>
<event>
 5    1  0.1154861E-006  0.2000279E+02  0.7818608E-02  0.1745273E+00
          4   -1    0    0  501    0  0.00000000000E+00  0.00000000000E+00  0.45679079426E+01  0.47835324784E+01  0.14200000000E+01 0. -1.
         -4   -1    0    0    0  501 -0.00000000000E+00 -0.00000000000E+00 -0.21153071912E+02  0.21200680445E+02  0.14200000000E+01 0.  1.
       1023    2    1    2    0    0  0.00000000000E+00  0.00000000000E+00 -0.16585163969E+02  0.25984212923E+02  0.20002791239E+02 0.  0.
        -11    1    3    3    0    0 -0.42400587831E+01 -0.90575307027E+01 -0.84285349464E+01  0.13078882311E+02  0.51100000000E-03 0. -1.
         11    1    3    3    0    0  0.42400587831E+01  0.90575307027E+01 -0.81566290231E+01  0.12905330612E+02  0.51100000000E-03 0.  1.
<mgrwt>
<rscale>  0 0.20002791E+02</rscale>
<asrwt>0</asrwt>
<pdfrwt beam="1">  1        4 0.72300378E-03 0.20002791E+02</pdfrwt>
<pdfrwt beam="2">  1       -4 0.32745674E-02 0.20002791E+02</pdfrwt>
<totfact> 0.12667438E+06</totfact>
</mgrwt>
</event>
<event>
 5    1  0.1154861E-006  0.2000252E+02  0.7818608E-02  0.1745278E+00
          4   -1    0    0  501    0  0.00000000000E+00  0.00000000000E+00  0.19554406291E+01  0.24166398271E+01  0.14200000000E+01 0. -1.
         -4   -1    0    0    0  501 -0.00000000000E+00 -0.00000000000E+00 -0.45282815634E+02  0.45305074680E+02  0.14200000000E+01 0.  1.
       1023    2    1    2    0    0  0.00000000000E+00  0.00000000000E+00 -0.43327375005E+02  0.47721714507E+02  0.20002515108E+02 0.  0.
        -11    1    3    3    0    0 -0.87900465193E+01 -0.47700988386E+01 -0.21854426028E+02  0.24034032079E+02  0.51100000000E-03 0. -1.
         11    1    3    3    0    0  0.87900465193E+01  0.47700988386E+01 -0.21472948977E+02  0.23687682427E+02  0.51100000000E-03 0.  1.
<mgrwt>
<rscale>  0 0.20002515E+02</rscale>
<asrwt>0</asrwt>
<pdfrwt beam="1">  1        4 0.33802615E-03 0.20002515E+02</pdfrwt>
<pdfrwt beam="2">  1       -4 0.70037754E-02 0.20002515E+02</pdfrwt>
<totfact> 0.11614165E+06</totfact>
</mgrwt>
</event>
<event>
 4    1  0.1154861E-006  0.2003084E+02  0.7818608E-02  0.1744715E+00
          4   -1    0    0  501    0  0.00000000000E+00  0.00000000000E+00  0.34302744651E+01  0.37125709294E+01  0.14200000000E+01 0. -1.
         -4   -1    0    0    0  501 -0.00000000000E+00 -0.00000000000E+00 -0.27785319467E+02  0.27821581153E+02  0.14200000000E+01 0.  1.
        -11    1    1    2    0    0 -0.99945625350E+01 -0.40108714495E+00 -0.12974800507E+02  0.16382844675E+02  0.51100000000E-03 0. -1.
         11    1    1    2    0    0  0.99945625350E+01  0.40108714495E+00 -0.11380244495E+02  0.15151307408E+02  0.51100000000E-03 0.  1.
<mgrwt>
<rscale>  0 0.20030839E+02</rscale>
<asrwt>0</asrwt>
<pdfrwt beam="1">  1        4 0.55223902E-03 0.20030839E+02</pdfrwt>
<pdfrwt beam="2">  1       -4 0.42991689E-02 0.20030839E+02</pdfrwt>
<totfact> 0.12337655E+06</totfact>
</mgrwt>
</event>
<event>
 5    1  0.1154861E-006  0.2000320E+02  0.7818608E-02  0.1745265E+00
          4   -1    0    0  501    0  0.00000000000E+00  0.00000000000E+00  0.85093285747E+01  0.86269967423E+01  0.14200000000E+01 0. -1.
         -4   -1    0    0    0  501 -0.00000000000E+00 -0.00000000000E+00 -0.11513258704E+02  0.11600496799E+02  0.14200000000E+01 0.  1.
       1023    2    1    2    0    0  0.00000000000E+00  0.00000000000E+00 -0.30039301290E+01  0.20227493541E+02  0.20003197213E+02 0.  0.
        -11    1    3    3    0    0  0.51982561328E+01 -0.85439460942E+01 -0.16084681142E+01  0.10129563249E+02  0.51100000000E-03 0.  1.
         11    1    3    3    0    0 -0.51982561328E+01  0.85439460942E+01 -0.13954620148E+01  0.10097930292E+02  0.51100000000E-03 0. -1.
<mgrwt>
<rscale>  0 0.20003197E+02</rscale>
<asrwt>0</asrwt>
<pdfrwt beam="1">  1        4 0.13248895E-02 0.20003197E+02</pdfrwt>
<pdfrwt beam="2">  1       -4 0.17870326E-02 0.20003197E+02</pdfrwt>
<totfact> 0.12996263E+06</totfact>
</mgrwt>
</event>
<event>
 5    1  0.1162681E-006  0.2000095E+02  0.7818608E-02  0.1745309E+00
          4   -1    0    0  501    0  0.00000000000E+00  0.00000000000E+00  0.31039709731E+02  0.31072173728E+02  0.14200000000E+01 0. -1.
         -4   -1    0    0    0  501 -0.00000000000E+00 -0.00000000000E+00 -0.30296173018E+01  0.33458901648E+01  0.14200000000E+01 0.  1.
       1023    2    1    2    0    0  0.00000000000E+00  0.00000000000E+00  0.28010092429E+02  0.34418063893E+02  0.20000946084E+02 0.  0.
        -11    1    3    3    0    0  0.21835597159E+01 -0.97587174372E+01  0.14167950398E+02  0.17341606552E+02  0.51100000000E-03 0. -1.
         11    1    3    3    0    0 -0.21835597159E+01  0.97587174372E+01  0.13842142031E+02  0.17076457341E+02  0.51100000000E-03 0.  1.
<mgrwt>
<rscale>  0 0.20000946E+02</rscale>
<asrwt>0</asrwt>
<pdfrwt beam="1">  1        4 0.48021661E-02 0.20000946E+02</pdfrwt>
<pdfrwt beam="2">  1       -4 0.49292086E-03 0.20000946E+02</pdfrwt>
<totfact> 0.12229583E+06</totfact>
</mgrwt>
</event>
<event>
 5    1  0.1154861E-006  0.2000428E+02  0.7818608E-02  0.1745243E+00
         -4   -1    0    0    0  501 -0.00000000000E+00  0.00000000000E+00  0.36435552475E+02  0.36463212752E+02  0.14200000000E+01 0. -1.
          4   -1    0    0  501    0  0.00000000000E+00 -0.00000000000E+00 -0.25314373586E+01  0.29025118605E+01  0.14200000000E+01 0.  1.
       1023    2    1    2    0    0  0.00000000000E+00  0.00000000000E+00  0.33904115117E+02  0.39365724612E+02  0.20004280852E+02 0.  0.
        -11    1    3    3    0    0 -0.75769623844E+01 -0.65266508162E+01  0.17321696736E+02  0.20001217661E+02  0.51100000000E-03 0. -1.
         11    1    3    3    0    0  0.75769623844E+01  0.65266508162E+01  0.16582418381E+02  0.19364506952E+02  0.51100000000E-03 0.  1.
<mgrwt>
<rscale>  0 0.20004281E+02</rscale>
<asrwt>0</asrwt>
<pdfrwt beam="2">  1        4 0.42012383E-03 0.20004281E+02</pdfrwt>
<pdfrwt beam="1">  1       -4 0.56361412E-02 0.20004281E+02</pdfrwt>
<totfact> 0.11987039E+06</totfact>
</mgrwt>
</event>
<event>
 5    1  0.1166257E-006  0.2000158E+02  0.7818608E-02  0.1745297E+00
          4   -1    0    0  501    0  0.00000000000E+00  0.00000000000E+00  0.57196957285E+01  0.58933283657E+01  0.14200000000E+01 0.  1.
         -4   -1    0    0    0  501 -0.00000000000E+00 -0.00000000000E+00 -0.17021124341E+02  0.17080253916E+02  0.14200000000E+01 0. -1.
       1023    2    1    2    0    0  0.00000000000E+00  0.00000000000E+00 -0.11301428612E+02  0.22973582282E+02  0.20001579792E+02 0.  0.
        -11    1    3    3    0    0 -0.99978867752E+01  0.21322327543E+00 -0.55218155347E+01  0.11423381776E+02  0.51100000000E-03 0. -1.
         11    1    3    3    0    0  0.99978867752E+01 -0.21322327543E+00 -0.57796130778E+01  0.11550200506E+02  0.51100000000E-03 0.  1.
<mgrwt>
<rscale>  0 0.20001580E+02</rscale>
<asrwt>0</asrwt>
<pdfrwt beam="1">  1        4 0.89785798E-03 0.20001580E+02</pdfrwt>
<pdfrwt beam="2">  1       -4 0.26365393E-02 0.20001580E+02</pdfrwt>
<totfact> 0.12838022E+06</totfact>
</mgrwt>
</event>
<event>
 5    1  0.1154861E-006  0.2000026E+02  0.7818608E-02  0.1745323E+00
         -4   -1    0    0    0  501 -0.00000000000E+00  0.00000000000E+00  0.22792977968E+01  0.26854419462E+01  0.14200000000E+01 0.  1.
          4   -1    0    0  501    0  0.00000000000E+00 -0.00000000000E+00 -0.39865313176E+02  0.39890595316E+02  0.14200000000E+01 0. -1.
       1023    2    1    2    0    0  0.00000000000E+00  0.00000000000E+00 -0.37586015379E+02  0.42576037262E+02  0.20000259919E+02 0.  0.
        -11    1    3    3    0    0 -0.24987064016E+01 -0.96828697942E+01 -0.18722474456E+02  0.21225752075E+02  0.51100000000E-03 0. -1.
         11    1    3    3    0    0  0.24987064016E+01  0.96828697942E+01 -0.18863540923E+02  0.21350285187E+02  0.51100000000E-03 0.  1.
<mgrwt>
<rscale>  0 0.20000260E+02</rscale>
<asrwt>0</asrwt>
<pdfrwt beam="2">  1        4 0.61663112E-02 0.20000260E+02</pdfrwt>
<pdfrwt beam="1">  1       -4 0.38384787E-03 0.20000260E+02</pdfrwt>
<totfact> 0.11844040E+06</totfact>
</mgrwt>
</event>
<event>
 5    1  0.1154861E-006  0.2001057E+02  0.7818608E-02  0.1745118E+00
          4   -1    0    0  501    0  0.00000000000E+00  0.00000000000E+00  0.13183244643E+01  0.19376220976E+01  0.14200000000E+01 0. -1.
         -4   -1    0    0    0  501 -0.00000000000E+00 -0.00000000000E+00 -0.60861847809E+02  0.60878410941E+02  0.14200000000E+01 0.  1.
       1023    2    1    2    0    0  0.00000000000E+00  0.00000000000E+00 -0.59543523345E+02  0.62816033039E+02  0.20010568069E+02 0.  0.
        -11    1    3    3    0    0  0.71602920296E+01 -0.69816867441E+01 -0.28819733553E+02  0.30505585949E+02  0.51100000000E-03 0.  1.
         11    1    3    3    0    0 -0.71602920296E+01  0.69816867441E+01 -0.30723789792E+02  0.32310447090E+02  0.51100000000E-03 0. -1.
<mgrwt>
<rscale>  0 0.20010568E+02</rscale>
<asrwt>0</asrwt>
<pdfrwt beam="1">  1        4 0.25173156E-03 0.20010568E+02</pdfrwt>
<pdfrwt beam="2">  1       -4 0.94122718E-02 0.20010568E+02</pdfrwt>
<totfact> 0.11000357E+06</totfact>
</mgrwt>
</event>
<event>
 5    1  0.1154861E-006  0.2001115E+02  0.7818608E-02  0.1745106E+00
         -4   -1    0    0    0  501 -0.00000000000E+00  0.00000000000E+00  0.81241219894E+02  0.81253628903E+02  0.14200000000E+01 0.  1.
          4   -1    0    0  501    0  0.00000000000E+00 -0.00000000000E+00 -0.80645633570E+00  0.16330253585E+01  0.14200000000E+01 0. -1.
       1023    2    1    2    0    0  0.00000000000E+00  0.00000000000E+00  0.80434763559E+02  0.82886654262E+02  0.20011153538E+02 0.  0.
        -11    1    3    3    0    0  0.23680089233E+01 -0.97212175928E+01  0.40030830834E+02  0.41262294595E+02  0.51100000000E-03 0. -1.
         11    1    3    3    0    0 -0.23680089233E+01  0.97212175928E+01  0.40403932724E+02  0.41624359666E+02  0.51100000000E-03 0.  1.
<mgrwt>
<rscale>  0 0.20011154E+02</rscale>
<asrwt>0</asrwt>
<pdfrwt beam="2">  1        4 0.18860699E-03 0.20011154E+02</pdfrwt>
<pdfrwt beam="1">  1       -4 0.12563185E-01 0.20011154E+02</pdfrwt>
<totfact> 0.10306302E+06</totfact>
</mgrwt>
</event>
<event>
 5    1  0.1186845E-006  0.2000118E+02  0.7818608E-02  0.1745305E+00
         -4   -1    0    0    0  501 -0.00000000000E+00  0.00000000000E+00  0.38615898335E+01  0.41143986246E+01  0.14200000000E+01 0.  1.
          4   -1    0    0  501    0  0.00000000000E+00 -0.00000000000E+00 -0.24804474536E+02  0.24845087180E+02  0.14200000000E+01 0. -1.
       1023    2    1    2    0    0  0.00000000000E+00  0.00000000000E+00 -0.20942884702E+02  0.28959485805E+02  0.20001184926E+02 0.  0.
        -11    1    3    3    0    0 -0.63809270136E+01 -0.76999504846E+01 -0.10587113400E+02  0.14563393747E+02  0.51100000000E-03 0.  1.
         11    1    3    3    0    0  0.63809270136E+01  0.76999504846E+01 -0.10355771302E+02  0.14396092058E+02  0.51100000000E-03 0. -1.
<mgrwt>
<rscale>  0 0.20001185E+02</rscale>
<asrwt>0</asrwt>
<pdfrwt beam="2">  1        4 0.38386438E-02 0.20001185E+02</pdfrwt>
<pdfrwt beam="1">  1       -4 0.61666164E-03 0.20001185E+02</pdfrwt>
<totfact> 0.12508941E+06</totfact>
</mgrwt>
</event>
<event>
 5    1  0.1154861E-006  0.2001157E+02  0.7818608E-02  0.1745098E+00
         -4   -1    0    0    0  501 -0.00000000000E+00  0.00000000000E+00  0.84294588681E+02  0.84306548269E+02  0.14200000000E+01 0.  1.
          4   -1    0    0  501    0  0.00000000000E+00 -0.00000000000E+00 -0.74681780292E+00  0.16044116775E+01  0.14200000000E+01 0. -1.
       1023    2    1    2    0    0  0.00000000000E+00  0.00000000000E+00  0.83547770879E+02  0.85910959946E+02  0.20011572154E+02 0.  0.
        -11    1    3    3    0    0  0.98248910499E+01  0.18920157679E+01  0.41400933203E+02  0.42592786691E+02  0.51100000000E-03 0. -1.
         11    1    3    3    0    0 -0.98248910499E+01 -0.18920157679E+01  0.42146837676E+02  0.43318173255E+02  0.51100000000E-03 0.  1.
<mgrwt>
<rscale>  0 0.20011572E+02</rscale>
<asrwt>0</asrwt>
<pdfrwt beam="2">  1        4 0.18178382E-03 0.20011572E+02</pdfrwt>
<pdfrwt beam="1">  1       -4 0.13035284E-01 0.20011572E+02</pdfrwt>
<totfact> 0.10210237E+06</totfact>
</mgrwt>
</event>
<event>
 5    1  0.1154861E-006  0.2000150E+02  0.7818608E-02  0.1745298E+00
          4   -1    0    0  501    0  0.00000000000E+00  0.00000000000E+00  0.13487853604E+02  0.13562396353E+02  0.14200000000E+01 0. -1.
         -4   -1    0    0    0  501 -0.00000000000E+00 -0.00000000000E+00 -0.72511603004E+01  0.73888920483E+01  0.14200000000E+01 0.  1.
       1023    2    1    2    0    0  0.00000000000E+00  0.00000000000E+00  0.62366933034E+01  0.20951288401E+02  0.20001503501E+02 0.  0.
        -11    1    3    3    0    0  0.84561159189E+01 -0.53392540068E+01  0.30777029316E+01  0.10463545545E+02  0.51100000000E-03 0.  1.
         11    1    3    3    0    0 -0.84561159189E+01  0.53392540068E+01  0.31589903718E+01  0.10487742856E+02  0.51100000000E-03 0. -1.
<mgrwt>
<rscale>  0 0.20001504E+02</rscale>
<asrwt>0</asrwt>
<pdfrwt beam="1">  1        4 0.20913832E-02 0.20001504E+02</pdfrwt>
<pdfrwt beam="2">  1       -4 0.11318919E-02 0.20001504E+02</pdfrwt>
<totfact> 0.12955639E+06</totfact>
</mgrwt>
</event>
<event>
 5    1  0.1154861E-006  0.2000030E+02  0.7818608E-02  0.1745322E+00
          4   -1    0    0  501    0  0.00000000000E+00  0.00000000000E+00  0.59237600682E+01  0.60915788878E+01  0.14200000000E+01 0.  1.
         -4   -1    0    0    0  501 -0.00000000000E+00 -0.00000000000E+00 -0.16447051412E+02  0.16508237342E+02  0.14200000000E+01 0. -1.
       1023    2    1    2    0    0  0.00000000000E+00  0.00000000000E+00 -0.10523291343E+02  0.22599816230E+02  0.20000300821E+02 0.  0.
        -11    1    3    3    0    0  0.97690662079E+01 -0.21370211389E+01 -0.53053224212E+01  0.11320245588E+02  0.51100000000E-03 0.  1.
         11    1    3    3    0    0 -0.97690662079E+01  0.21370211389E+01 -0.52179689222E+01  0.11279570641E+02  0.51100000000E-03 0. -1.
<mgrwt>
<rscale>  0 0.20000301E+02</rscale>
<asrwt>0</asrwt>
<pdfrwt beam="1">  1        4 0.92896346E-03 0.20000301E+02</pdfrwt>
<pdfrwt beam="2">  1       -4 0.25479313E-02 0.20000301E+02</pdfrwt>
<totfact> 0.12861154E+06</totfact>
</mgrwt>
</event>
<event>
 4    1  0.1154861E-006  0.2002199E+02  0.7818608E-02  0.1744891E+00
         -4   -1    0    0    0  501 -0.00000000000E+00  0.00000000000E+00  0.34990062775E+01  0.37761680219E+01  0.14200000000E+01 0. -1.
          4   -1    0    0  501    0  0.00000000000E+00 -0.00000000000E+00 -0.27254873798E+02  0.27291840278E+02  0.14200000000E+01 0.  1.
        -11    1    1    2    0    0  0.98132494374E+01 -0.19550301173E+01 -0.12363609175E+02  0.15905371400E+02  0.51100000000E-03 0.  1.
         11    1    1    2    0    0 -0.98132494374E+01  0.19550301173E+01 -0.11392258346E+02  0.15162636900E+02  0.51100000000E-03 0. -1.
<mgrwt>
<rscale>  0 0.20021985E+02</rscale>
<asrwt>0</asrwt>
<pdfrwt beam="2">  1        4 0.42172211E-02 0.20021985E+02</pdfrwt>
<pdfrwt beam="1">  1       -4 0.56247238E-03 0.20021985E+02</pdfrwt>
<totfact> 0.12372685E+06</totfact>
</mgrwt>
</event>
<event>
 5    1  0.1154861E-006  0.2000261E+02  0.7818608E-02  0.1745276E+00
          4   -1    0    0  501    0  0.00000000000E+00  0.00000000000E+00  0.10450582337E+01  0.17631071187E+01  0.14200000000E+01 0. -1.
         -4   -1    0    0    0  501 -0.00000000000E+00 -0.00000000000E+00 -0.70512462833E+02  0.70526759566E+02  0.14200000000E+01 0.  1.
       1023    2    1    2    0    0  0.00000000000E+00  0.00000000000E+00 -0.69467404600E+02  0.72289866684E+02  0.20002612915E+02 0.  0.
        -11    1    3    3    0    0 -0.99780055321E+01  0.67975515056E+00 -0.34946565720E+02  0.36349485792E+02  0.51100000000E-03 0.  1.
         11    1    3    3    0    0  0.99780055321E+01 -0.67975515056E+00 -0.34520838880E+02  0.35940380892E+02  0.51100000000E-03 0. -1.
<mgrwt>
<rscale>  0 0.20002613E+02</rscale>
<asrwt>0</asrwt>
<pdfrwt beam="1">  1        4 0.21711252E-03 0.20002613E+02</pdfrwt>
<pdfrwt beam="2">  1       -4 0.10904403E-01 0.20002613E+02</pdfrwt>
<totfact> 0.10667901E+06</totfact>
</mgrwt>
</event>
<event>
 5    1  0.1154861E-006  0.2000124E+02  0.7818608E-02  0.1745303E+00
         -4   -1    0    0    0  501 -0.00000000000E+00  0.00000000000E+00  0.10343756780E+01  0.17567962441E+01  0.14200000000E+01 0. -1.
          4   -1    0    0  501    0  0.00000000000E+00 -0.00000000000E+00 -0.70932002319E+02  0.70946214508E+02  0.14200000000E+01 0.  1.
       1023    2    1    2    0    0  0.00000000000E+00  0.00000000000E+00 -0.69897626641E+02  0.72703010752E+02  0.20001239020E+02 0.  0.
        -11    1    3    3    0    0  0.91169029928E+01  0.41101410591E+01 -0.35075286816E+02  0.36473098651E+02  0.51100000000E-03 0.  1.
         11    1    3    3    0    0 -0.91169029928E+01 -0.41101410591E+01 -0.34822339825E+02  0.36229912101E+02  0.51100000000E-03 0. -1.
<mgrwt>
<rscale>  0 0.20001239E+02</rscale>
<asrwt>0</asrwt>
<pdfrwt beam="2">  1        4 0.10969277E-01 0.20001239E+02</pdfrwt>
<pdfrwt beam="1">  1       -4 0.21579883E-03 0.20001239E+02</pdfrwt>
<totfact> 0.10655075E+06</totfact>
</mgrwt>
</event>
<event>
 5    1  0.1154861E-006  0.2000038E+02  0.7818608E-02  0.1745320E+00
         -4   -1    0    0    0  501 -0.00000000000E+00  0.00000000000E+00  0.36335985759E+01  0.39012098906E+01  0.14200000000E+01 0.  1.
          4   -1    0    0  501    0  0.00000000000E+00 -0.00000000000E+00 -0.26257010340E+02  0.26295379670E+02  0.14200000000E+01 0. -1.
       1023    2    1    2    0    0  0.00000000000E+00  0.00000000000E+00 -0.22623411764E+02  0.30196589560E+02  0.20000381528E+02 0.  0.
        -11    1    3    3    0    0 -0.12769489486E+01 -0.99182954081E+01 -0.11349680622E+02  0.15126745615E+02  0.51100000000E-03 0. -1.
         11    1    3    3    0    0  0.12769489486E+01  0.99182954081E+01 -0.11273731142E+02  0.15069843945E+02  0.51100000000E-03 0.  1.
<mgrwt>
<rscale>  0 0.20000382E+02</rscale>
<asrwt>0</asrwt>
<pdfrwt beam="2">  1        4 0.40630769E-02 0.20000382E+02</pdfrwt>
<pdfrwt beam="1">  1       -4 0.58255216E-03 0.20000382E+02</pdfrwt>
<totfact> 0.12445003E+06</totfact>
</mgrwt>
</event>
<event>
 5    1  0.1154861E-006  0.2000147E+02  0.7818608E-02  0.1745299E+00
         -4   -1    0    0    0  501 -0.00000000000E+00  0.00000000000E+00  0.92968769227E+02  0.92979613096E+02  0.14200000000E+01 0. -1.
          4   -1    0    0  501    0  0.00000000000E+00 -0.00000000000E+00 -0.59145564549E+00  0.15382521837E+01  0.14200000000E+01 0.  1.
       1023    2    1    2    0    0  0.00000000000E+00  0.00000000000E+00  0.92377313581E+02  0.94517865280E+02  0.20001469761E+02 0.  0.
        -11    1    3    3    0    0  0.10526009631E+01  0.99451439653E+01  0.46051647783E+02  0.47125026484E+02  0.51100000000E-03 0. -1.
         11    1    3    3    0    0 -0.10526009631E+01 -0.99451439653E+01  0.46325665798E+02  0.47392838796E+02  0.51100000000E-03 0.  1.
<mgrwt>
<rscale>  0 0.20001470E+02</rscale>
<asrwt>0</asrwt>
<pdfrwt beam="2">  1        4 0.16465779E-03 0.20001470E+02</pdfrwt>
<pdfrwt beam="1">  1       -4 0.14376555E-01 0.20001470E+02</pdfrwt>
<totfact> 0.99587514E+05</totfact>
</mgrwt>
</event>
<event>
 5    1  0.1154861E-006  0.2000043E+02  0.7818608E-02  0.1745319E+00
          4   -1    0    0  501    0  0.00000000000E+00  0.00000000000E+00  0.36016688861E+02  0.36044670570E+02  0.14200000000E+01 0.  1.
         -4   -1    0    0    0  501 -0.00000000000E+00 -0.00000000000E+00 -0.25640027099E+01  0.29309571639E+01  0.14200000000E+01 0. -1.
       1023    2    1    2    0    0  0.00000000000E+00  0.00000000000E+00  0.33452686151E+02  0.38975627734E+02  0.20000433659E+02 0.  0.
        -11    1    3    3    0    0  0.95299716576E+01 -0.30304278537E+01  0.16683488456E+02  0.19451031852E+02  0.51100000000E-03 0. -1.
         11    1    3    3    0    0 -0.95299716576E+01  0.30304278537E+01  0.16769197695E+02  0.19524595882E+02  0.51100000000E-03 0.  1.
<mgrwt>
<rscale>  0 0.20000434E+02</rscale>
<asrwt>0</asrwt>
<pdfrwt beam="1">  1        4 0.55714086E-02 0.20000434E+02</pdfrwt>
<pdfrwt beam="2">  1       -4 0.42484167E-03 0.20000434E+02</pdfrwt>
<totfact> 0.12010030E+06</totfact>
</mgrwt>
</event>
<event>
 4    1  0.1154861E-006  0.2005529E+02  0.7818608E-02  0.1744231E+00
         -4   -1    0    0    0  501 -0.00000000000E+00  0.00000000000E+00  0.26281392916E+02  0.26319726701E+02  0.14200000000E+01 0. -1.
          4   -1    0    0  501    0  0.00000000000E+00 -0.00000000000E+00 -0.36516320820E+01  0.39180118507E+01  0.14200000000E+01 0.  1.
        -11    1    1    2    0    0  0.28471224709E+01 -0.96148562360E+01  0.11384338044E+02  0.15170850990E+02  0.51100000000E-03 0.  1.
         11    1    1    2    0    0 -0.28471224709E+01  0.96148562360E+01  0.11245422790E+02  0.15066887562E+02  0.51100000000E-03 0. -1.
<mgrwt>
<rscale>  0 0.20055293E+02</rscale>
<asrwt>0</asrwt>
<pdfrwt beam="2">  1        4 0.58522906E-03 0.20055293E+02</pdfrwt>
<pdfrwt beam="1">  1       -4 0.40667307E-02 0.20055293E+02</pdfrwt>
<totfact> 0.12373714E+06</totfact>
</mgrwt>
</event>
<event>
 5    1  0.1154861E-006  0.2000026E+02  0.7818608E-02  0.1745323E+00
         -4   -1    0    0    0  501 -0.00000000000E+00  0.00000000000E+00  0.27340545287E+01  0.30808203722E+01  0.14200000000E+01 0. -1.
          4   -1    0    0  501    0  0.00000000000E+00 -0.00000000000E+00 -0.34032993089E+02  0.34062604402E+02  0.14200000000E+01 0.  1.
       1023    2    1    2    0    0  0.00000000000E+00  0.00000000000E+00 -0.31298938561E+02  0.37143424774E+02  0.20000261221E+02 0.  0.
        -11    1    3    3    0    0  0.89953199717E+01  0.43688086659E+01 -0.15683784315E+02  0.18600627980E+02  0.51100000000E-03 0.  1.
         11    1    3    3    0    0 -0.89953199717E+01 -0.43688086659E+01 -0.15615154245E+02  0.18542796793E+02  0.51100000000E-03 0. -1.
<mgrwt>
<rscale>  0 0.20000261E+02</rscale>
<asrwt>0</asrwt>
<pdfrwt beam="2">  1        4 0.52647969E-02 0.20000261E+02</pdfrwt>
<pdfrwt beam="1">  1       -4 0.44957588E-03 0.20000261E+02</pdfrwt>
<totfact> 0.12097379E+06</totfact>
</mgrwt>
</event>
<event>
 5    1  0.1154861E-006  0.2000847E+02  0.7818608E-02  0.1745160E+00
          4   -1    0    0  501    0  0.00000000000E+00  0.00000000000E+00  0.68599294948E+01  0.70053574265E+01  0.14200000000E+01 0.  1.
         -4   -1    0    0    0  501 -0.00000000000E+00 -0.00000000000E+00 -0.14255660800E+02  0.14326209018E+02  0.14200000000E+01 0. -1.
       1023    2    1    2    0    0  0.00000000000E+00  0.00000000000E+00 -0.73957313049E+01  0.21331566445E+02  0.20008470343E+02 0.  0.
        -11    1    3    3    0    0  0.86057697901E+01  0.50965442749E+01 -0.34578476747E+01  0.10582568121E+02  0.51100000000E-03 0.  1.
         11    1    3    3    0    0 -0.86057697901E+01 -0.50965442749E+01 -0.39378836301E+01  0.10748998324E+02  0.51100000000E-03 0. -1.
<mgrwt>
<rscale>  0 0.20008470E+02</rscale>
<asrwt>0</asrwt>
<pdfrwt beam="1">  1        4 0.10719873E-02 0.20008470E+02</pdfrwt>
<pdfrwt beam="2">  1       -4 0.22097921E-02 0.20008470E+02</pdfrwt>
<totfact> 0.12924067E+06</totfact>
</mgrwt>
</event>
<event>
 5    1  0.1154861E-006  0.2000250E+02  0.7818608E-02  0.1745278E+00
          4   -1    0    0  501    0  0.00000000000E+00  0.00000000000E+00  0.15482448073E+01  0.21008241200E+01  0.14200000000E+01 0. -1.
         -4   -1    0    0    0  501 -0.00000000000E+00 -0.00000000000E+00 -0.54258924483E+02  0.54277502577E+02  0.14200000000E+01 0.  1.
       1023    2    1    2    0    0  0.00000000000E+00  0.00000000000E+00 -0.52710679676E+02  0.56378326697E+02  0.20002499077E+02 0.  0.
        -11    1    3    3    0    0 -0.99997002748E+01  0.17308687556E+00 -0.26445684419E+02  0.28273630635E+02  0.51100000000E-03 0.  1.
         11    1    3    3    0    0  0.99997002748E+01 -0.17308687556E+00 -0.26264995257E+02  0.28104696062E+02  0.51100000000E-03 0. -1.
<mgrwt>
<rscale>  0 0.20002499E+02</rscale>
<asrwt>0</asrwt>
<pdfrwt beam="1">  1        4 0.28212674E-03 0.20002499E+02</pdfrwt>
<pdfrwt beam="2">  1       -4 0.83914608E-02 0.20002499E+02</pdfrwt>
<totfact> 0.11257152E+06</totfact>
</mgrwt>
</event>
<event>
 5    1  0.1154861E-006  0.2000177E+02  0.7818608E-02  0.1745293E+00
          4   -1    0    0  501    0  0.00000000000E+00  0.00000000000E+00  0.49861851440E+02  0.49882067209E+02  0.14200000000E+01 0. -1.
         -4   -1    0    0    0  501 -0.00000000000E+00 -0.00000000000E+00 -0.17312970139E+01  0.22391492470E+01  0.14200000000E+01 0.  1.
       1023    2    1    2    0    0  0.00000000000E+00  0.00000000000E+00  0.48130554427E+02  0.52121216456E+02  0.20001773308E+02 0.  0.
        -11    1    3    3    0    0 -0.60277076925E+01 -0.79791895182E+01  0.24405117934E+02  0.26374429037E+02  0.51100000000E-03 0.  1.
         11    1    3    3    0    0  0.60277076925E+01  0.79791895182E+01  0.23725436493E+02  0.25746787419E+02  0.51100000000E-03 0. -1.
<mgrwt>
<rscale>  0 0.20001773E+02</rscale>
<asrwt>0</asrwt>
<pdfrwt beam="1">  1        4 0.77116736E-02 0.20001773E+02</pdfrwt>
<pdfrwt beam="2">  1       -4 0.30697405E-03 0.20001773E+02</pdfrwt>
<totfact> 0.11429877E+06</totfact>
</mgrwt>
</event>
<event>
 5    1  0.1169848E-006  0.2000088E+02  0.7818608E-02  0.1745311E+00
         -4   -1    0    0    0  501 -0.00000000000E+00  0.00000000000E+00  0.24882915438E+01  0.28649598264E+01  0.14200000000E+01 0.  1.
          4   -1    0    0  501    0  0.00000000000E+00 -0.00000000000E+00 -0.36972510318E+02  0.36999769178E+02  0.14200000000E+01 0. -1.
       1023    2    1    2    0    0  0.00000000000E+00  0.00000000000E+00 -0.34484218774E+02  0.39864729004E+02  0.20000881833E+02 0.  0.
        -11    1    3    3    0    0 -0.32949762565E+01  0.94417554035E+01 -0.17385901442E+02  0.20056749060E+02  0.51100000000E-03 0. -1.
         11    1    3    3    0    0  0.32949762565E+01 -0.94417554035E+01 -0.17098317332E+02  0.19807979944E+02  0.51100000000E-03 0.  1.
<mgrwt>
<rscale>  0 0.20000882E+02</rscale>
<asrwt>0</asrwt>
<pdfrwt beam="2">  1        4 0.57191495E-02 0.20000882E+02</pdfrwt>
<pdfrwt beam="1">  1       -4 0.41388543E-03 0.20000882E+02</pdfrwt>
<totfact> 0.11967842E+06</totfact>
</mgrwt>
</event>
<event>
 5    1  0.1154861E-006  0.2000022E+02  0.7818608E-02  0.1745324E+00
         -4   -1    0    0    0  501 -0.00000000000E+00  0.00000000000E+00  0.51581981886E+01  0.53500849108E+01  0.14200000000E+01 0. -1.
          4   -1    0    0  501    0  0.00000000000E+00 -0.00000000000E+00 -0.18813888341E+02  0.18867400312E+02  0.14200000000E+01 0.  1.
       1023    2    1    2    0    0  0.00000000000E+00  0.00000000000E+00 -0.13655690153E+02  0.24217485222E+02  0.20000217923E+02 0.  0.
        -11    1    3    3    0    0  0.57574672204E+01 -0.81763994840E+01 -0.68466684669E+01  0.12119356694E+02  0.51100000000E-03 0. -1.
         11    1    3    3    0    0 -0.57574672204E+01  0.81763994840E+01 -0.68090216859E+01  0.12098128529E+02  0.51100000000E-03 0.  1.
<mgrwt>
<rscale>  0 0.20000218E+02</rscale>
<asrwt>0</asrwt>
<pdfrwt beam="2">  1        4 0.29133211E-02 0.20000218E+02</pdfrwt>
<pdfrwt beam="1">  1       -4 0.81244579E-03 0.20000218E+02</pdfrwt>
<totfact> 0.12769226E+06</totfact>
</mgrwt>
</event>
<event>
 5    1  0.1154861E-006  0.2001219E+02  0.7818608E-02  0.1745086E+00
         -4   -1    0    0    0  501 -0.00000000000E+00  0.00000000000E+00  0.63284034377E+01  0.64857605622E+01  0.14200000000E+01 0.  1.
          4   -1    0    0  501    0  0.00000000000E+00 -0.00000000000E+00 -0.15436411036E+02  0.15501586553E+02  0.14200000000E+01 0. -1.
       1023    2    1    2    0    0  0.00000000000E+00  0.00000000000E+00 -0.91080075978E+01  0.21987347115E+02  0.20012187056E+02 0.  0.
        -11    1    3    3    0    0  0.99423960329E+01 -0.10917189836E+01 -0.42455489703E+01  0.10865899665E+02  0.51100000000E-03 0. -1.
         11    1    3    3    0    0 -0.99423960329E+01  0.10917189836E+01 -0.48624586275E+01  0.11121447450E+02  0.51100000000E-03 0.  1.
<mgrwt>
<rscale>  0 0.20012187E+02</rscale>
<asrwt>0</asrwt>
<pdfrwt beam="2">  1        4 0.23919504E-02 0.20012187E+02</pdfrwt>
<pdfrwt beam="1">  1       -4 0.99071843E-03 0.20012187E+02</pdfrwt>
<totfact> 0.12880944E+06</totfact>
</mgrwt>
</event>
<event>
 5    1  0.1154861E-006  0.2000071E+02  0.7818608E-02  0.1745314E+00
          4   -1    0    0  501    0  0.00000000000E+00  0.00000000000E+00  0.21762047872E+02  0.21808327024E+02  0.14200000000E+01 0.  1.
         -4   -1    0    0    0  501 -0.00000000000E+00 -0.00000000000E+00 -0.44332716762E+01  0.46551367063E+01  0.14200000000E+01 0. -1.
       1023    2    1    2    0    0  0.00000000000E+00  0.00000000000E+00  0.17328776196E+02  0.26463463731E+02  0.20000710691E+02 0.  0.
        -11    1    3    3    0    0  0.73601693892E+01  0.67701232987E+01  0.86922638057E+01  0.13249985405E+02  0.51100000000E-03 0.  1.
         11    1    3    3    0    0 -0.73601693892E+01 -0.67701232987E+01  0.86365123905E+01  0.13213478325E+02  0.51100000000E-03 0. -1.
<mgrwt>
<rscale>  0 0.20000711E+02</rscale>
<asrwt>0</asrwt>
<pdfrwt beam="1">  1        4 0.33686339E-02 0.20000711E+02</pdfrwt>
<pdfrwt beam="2">  1       -4 0.70266826E-03 0.20000711E+02</pdfrwt>
<totfact> 0.12643823E+06</totfact>
</mgrwt>
</event>
<event>
 5    1  0.1154861E-006  0.2000027E+02  0.7818608E-02  0.1745323E+00
          4   -1    0    0  501    0  0.00000000000E+00  0.00000000000E+00  0.12699221133E+02  0.12778365208E+02  0.14200000000E+01 0. -1.
         -4   -1    0    0    0  501 -0.00000000000E+00 -0.00000000000E+00 -0.77060354607E+01  0.78357758086E+01  0.14200000000E+01 0.  1.
       1023    2    1    2    0    0  0.00000000000E+00  0.00000000000E+00  0.49931856726E+01  0.20614141017E+02  0.20000272666E+02 0.  0.
        -11    1    3    3    0    0  0.99233455129E+01 -0.12368793787E+01  0.24879912346E+01  0.10304987017E+02  0.51100000000E-03 0. -1.
         11    1    3    3    0    0 -0.99233455129E+01  0.12368793787E+01  0.25051944380E+01  0.10309154000E+02  0.51100000000E-03 0.  1.
<mgrwt>
<rscale>  0 0.20000273E+02</rscale>
<asrwt>0</asrwt>
<pdfrwt beam="1">  1        4 0.19697943E-02 0.20000273E+02</pdfrwt>
<pdfrwt beam="2">  1       -4 0.12016120E-02 0.20000273E+02</pdfrwt>
<totfact> 0.12977209E+06</totfact>
</mgrwt>
</event>
<event>
 5    1  0.1154861E-006  0.2000050E+02  0.7818608E-02  0.1745318E+00
         -4   -1    0    0    0  501 -0.00000000000E+00  0.00000000000E+00  0.32918504207E+01  0.35850633457E+01  0.14200000000E+01 0.  1.
          4   -1    0    0  501    0  0.00000000000E+00 -0.00000000000E+00 -0.28772792412E+02  0.28807811149E+02  0.14200000000E+01 0. -1.
       1023    2    1    2    0    0  0.00000000000E+00  0.00000000000E+00 -0.25480941991E+02  0.32392874494E+02  0.20000497825E+02 0.  0.
        -11    1    3    3    0    0  0.54058197490E+01  0.84131274183E+01 -0.12680350379E+02  0.16149145058E+02  0.51100000000E-03 0.  1.
         11    1    3    3    0    0 -0.54058197490E+01 -0.84131274183E+01 -0.12800591612E+02  0.16243729436E+02  0.51100000000E-03 0. -1.
<mgrwt>
<rscale>  0 0.20000498E+02</rscale>
<asrwt>0</asrwt>
<pdfrwt beam="2">  1        4 0.44518319E-02 0.20000498E+02</pdfrwt>
<pdfrwt beam="1">  1       -4 0.53168713E-03 0.20000498E+02</pdfrwt>
<totfact> 0.12331824E+06</totfact>
</mgrwt>
</event>
<event>
 5    1  0.1154861E-006  0.2000088E+02  0.7818608E-02  0.1745311E+00
         -4   -1    0    0    0  501 -0.00000000000E+00  0.00000000000E+00  0.10096038772E+03  0.10097037332E+03  0.14200000000E+01 0. -1.
          4   -1    0    0  501    0  0.00000000000E+00 -0.00000000000E+00 -0.46639683455E+00  0.14946323987E+01  0.14200000000E+01 0.  1.
       1023    2    1    2    0    0  0.00000000000E+00  0.00000000000E+00  0.10049399089E+03  0.10246500572E+03  0.20000879807E+02 0.  0.
        -11    1    3    3    0    0 -0.18596691900E+01 -0.98257491622E+01  0.49881787820E+02  0.50874320364E+02  0.51100000000E-03 0.  1.
         11    1    3    3    0    0  0.18596691900E+01  0.98257491622E+01  0.50612203067E+02  0.51590685357E+02  0.51100000000E-03 0. -1.
<mgrwt>
<rscale>  0 0.20000880E+02</rscale>
<asrwt>0</asrwt>
<pdfrwt beam="2">  1        4 0.15161656E-03 0.20000880E+02</pdfrwt>
<pdfrwt beam="1">  1       -4 0.15612227E-01 0.20000880E+02</pdfrwt>
<totfact> 0.97307637E+05</totfact>
</mgrwt>
</event>
<event>
 5    1  0.1154861E-006  0.2000014E+02  0.7818608E-02  0.1745325E+00
          4   -1    0    0  501    0  0.00000000000E+00  0.00000000000E+00  0.36268426429E+01  0.38949181707E+01  0.14200000000E+01 0. -1.
         -4   -1    0    0    0  501 -0.00000000000E+00 -0.00000000000E+00 -0.26301980487E+02  0.26340284311E+02  0.14200000000E+01 0.  1.
       1023    2    1    2    0    0  0.00000000000E+00  0.00000000000E+00 -0.22675137844E+02  0.30235202481E+02  0.20000139820E+02 0.  0.
        -11    1    3    3    0    0  0.52776709657E+01 -0.84939278737E+01 -0.11379692159E+02  0.15149191907E+02  0.51100000000E-03 0.  1.
         11    1    3    3    0    0 -0.52776709657E+01  0.84939278737E+01 -0.11295445685E+02  0.15086010574E+02  0.51100000000E-03 0. -1.
<mgrwt>
<rscale>  0 0.20000140E+02</rscale>
<asrwt>0</asrwt>
<pdfrwt beam="1">  1        4 0.58154345E-03 0.20000140E+02</pdfrwt>
<pdfrwt beam="2">  1       -4 0.40700261E-02 0.20000140E+02</pdfrwt>
<totfact> 0.12443297E+06</totfact>
</mgrwt>
</event>
<event>
 5    1  0.1197103E-006  0.2000139E+02  0.7818608E-02  0.1745300E+00
          4   -1    0    0  501    0  0.00000000000E+00  0.00000000000E+00  0.23519165451E+02  0.23561993624E+02  0.14200000000E+01 0.  1.
         -4   -1    0    0    0  501 -0.00000000000E+00 -0.00000000000E+00 -0.40857740815E+01  0.43254999532E+01  0.14200000000E+01 0. -1.
       1023    2    1    2    0    0  0.00000000000E+00  0.00000000000E+00  0.19433391370E+02  0.27887493577E+02  0.20001389899E+02 0.  0.
        -11    1    3    3    0    0  0.10894834822E+00 -0.99999001489E+01  0.98051689203E+01  0.14005399336E+02  0.51100000000E-03 0. -1.
         11    1    3    3    0    0 -0.10894834822E+00  0.99999001489E+01  0.96282224497E+01  0.13882094242E+02  0.51100000000E-03 0.  1.
<mgrwt>
<rscale>  0 0.20001390E+02</rscale>
<asrwt>0</asrwt>
<pdfrwt beam="1">  1        4 0.36400681E-02 0.20001390E+02</pdfrwt>
<pdfrwt beam="2">  1       -4 0.65031556E-03 0.20001390E+02</pdfrwt>
<totfact> 0.12565808E+06</totfact>
</mgrwt>
</event>
<event>
 5    1  0.1154861E-006  0.2000026E+02  0.7818608E-02  0.1745323E+00
          4   -1    0    0  501    0  0.00000000000E+00  0.00000000000E+00  0.67775583280E+01  0.69247163761E+01  0.14200000000E+01 0.  1.
         -4   -1    0    0    0  501 -0.00000000000E+00 -0.00000000000E+00 -0.14414070763E+02  0.14483847416E+02  0.14200000000E+01 0. -1.
       1023    2    1    2    0    0  0.00000000000E+00  0.00000000000E+00 -0.76365124351E+01  0.21408563792E+02  0.20000257035E+02 0.  0.
        -11    1    3    3    0    0  0.84947140770E+01  0.52765343800E+01 -0.38442077378E+01  0.10713538897E+02  0.51100000000E-03 0. -1.
         11    1    3    3    0    0 -0.84947140770E+01 -0.52765343800E+01 -0.37923046973E+01  0.10695024894E+02  0.51100000000E-03 0.  1.
<mgrwt>
<rscale>  0 0.20000257E+02</rscale>
<asrwt>0</asrwt>
<pdfrwt beam="1">  1        4 0.10593886E-02 0.20000257E+02</pdfrwt>
<pdfrwt beam="2">  1       -4 0.22342366E-02 0.20000257E+02</pdfrwt>
<totfact> 0.12930381E+06</totfact>
</mgrwt>
</event>
<event>
 5    1  0.1154861E-006  0.2000187E+02  0.7818608E-02  0.1745291E+00
         -4   -1    0    0    0  501 -0.00000000000E+00  0.00000000000E+00  0.26304414697E+01  0.29892511312E+01  0.14200000000E+01 0.  1.
          4   -1    0    0  501    0  0.00000000000E+00 -0.00000000000E+00 -0.35221766169E+02  0.35250378893E+02  0.14200000000E+01 0. -1.
       1023    2    1    2    0    0  0.00000000000E+00  0.00000000000E+00 -0.32591324700E+02  0.38239630024E+02  0.20001871380E+02 0.  0.
        -11    1    3    3    0    0  0.86913144215E+01 -0.49474178034E+01 -0.16397278178E+02  0.19206421353E+02  0.51100000000E-03 0. -1.
         11    1    3    3    0    0 -0.86913144215E+01  0.49474178034E+01 -0.16194046522E+02  0.19033208671E+02  0.51100000000E-03 0.  1.
<mgrwt>
<rscale>  0 0.20001871E+02</rscale>
<asrwt>0</asrwt>
<pdfrwt beam="2">  1        4 0.54485347E-02 0.20001871E+02</pdfrwt>
<pdfrwt beam="1">  1       -4 0.43448505E-03 0.20001871E+02</pdfrwt>
<totfact> 0.12043064E+06</totfact>
</mgrwt>
</event>
<event>
 5    1  0.1172748E-006  0.2000141E+02  0.7818608E-02  0.1745300E+00
          4   -1    0    0  501    0  0.00000000000E+00  0.00000000000E+00  0.23089527126E+01  0.27106572319E+01  0.14200000000E+01 0.  1.
         -4   -1    0    0    0  501 -0.00000000000E+00 -0.00000000000E+00 -0.39433831720E+02  0.39459390317E+02  0.14200000000E+01 0. -1.
       1023    2    1    2    0    0  0.00000000000E+00  0.00000000000E+00 -0.37124879008E+02  0.42170047548E+02  0.20001406673E+02 0.  0.
        -11    1    3    3    0    0  0.10000265453E+02  0.75048706624E-01 -0.18444568976E+02  0.20981255120E+02  0.51100000000E-03 0.  1.
         11    1    3    3    0    0 -0.10000265453E+02 -0.75048706624E-01 -0.18680310032E+02  0.21188792429E+02  0.51100000000E-03 0. -1.
<mgrwt>
<rscale>  0 0.20001407E+02</rscale>
<asrwt>0</asrwt>
<pdfrwt beam="1">  1        4 0.38808991E-03 0.20001407E+02</pdfrwt>
<pdfrwt beam="2">  1       -4 0.60996093E-02 0.20001407E+02</pdfrwt>
<totfact> 0.11861098E+06</totfact>
</mgrwt>
</event>
<event>
 5    1  0.1198446E-006  0.2000080E+02  0.7818608E-02  0.1745312E+00
         -4   -1    0    0    0  501 -0.00000000000E+00  0.00000000000E+00  0.31762372493E+01  0.34792072465E+01  0.14200000000E+01 0. -1.
          4   -1    0    0  501    0  0.00000000000E+00 -0.00000000000E+00 -0.29732313323E+02  0.29766203243E+02  0.14200000000E+01 0.  1.
       1023    2    1    2    0    0  0.00000000000E+00  0.00000000000E+00 -0.26556076073E+02  0.33245410490E+02  0.20000803539E+02 0.  0.
        -11    1    3    3    0    0  0.98345199398E+01 -0.18138655570E+01 -0.13298025203E+02  0.16638670778E+02  0.51100000000E-03 0.  1.
         11    1    3    3    0    0 -0.98345199398E+01  0.18138655570E+01 -0.13258050870E+02  0.16606739711E+02  0.51100000000E-03 0. -1.
<mgrwt>
<rscale>  0 0.20000804E+02</rscale>
<asrwt>0</asrwt>
<pdfrwt beam="2">  1        4 0.46001142E-02 0.20000804E+02</pdfrwt>
<pdfrwt beam="1">  1       -4 0.51456421E-03 0.20000804E+02</pdfrwt>
<totfact> 0.12288335E+06</totfact>
</mgrwt>
</event>
<event>
 5    1  0.1199508E-006  0.2000131E+02  0.7818608E-02  0.1745302E+00
          4   -1    0    0  501    0  0.00000000000E+00  0.00000000000E+00  0.84522318454E+01  0.85706839382E+01  0.14200000000E+01 0.  1.
         -4   -1    0    0    0  501 -0.00000000000E+00 -0.00000000000E+00 -0.11588320783E+02  0.11674998012E+02  0.14200000000E+01 0. -1.
       1023    2    1    2    0    0  0.00000000000E+00  0.00000000000E+00 -0.31360889380E+01  0.20245681950E+02  0.20001314552E+02 0.  0.
        -11    1    3    3    0    0  0.78531330655E+01 -0.61910154685E+01 -0.14536405372E+01  0.10105119621E+02  0.51100000000E-03 0.  1.
         11    1    3    3    0    0 -0.78531330655E+01  0.61910154685E+01 -0.16824484008E+01  0.10140562329E+02  0.51100000000E-03 0. -1.
<mgrwt>
<rscale>  0 0.20001315E+02</rscale>
<asrwt>0</asrwt>
<pdfrwt beam="1">  1        4 0.13161225E-02 0.20001315E+02</pdfrwt>
<pdfrwt beam="2">  1       -4 0.17985978E-02 0.20001315E+02</pdfrwt>
<totfact> 0.12997677E+06</totfact>
</mgrwt>
</event>
<event>
 5    1  0.1160755E-006  0.2000090E+02  0.7818608E-02  0.1745310E+00
          4   -1    0    0  501    0  0.00000000000E+00  0.00000000000E+00  0.15993471046E+01  0.21387639330E+01  0.14200000000E+01 0.  1.
         -4   -1    0    0    0  501 -0.00000000000E+00 -0.00000000000E+00 -0.52957482741E+02  0.52976517234E+02  0.14200000000E+01 0. -1.
       1023    2    1    2    0    0  0.00000000000E+00  0.00000000000E+00 -0.51358135636E+02  0.55115281167E+02  0.20000903032E+02 0.  0.
        -11    1    3    3    0    0 -0.49979553642E+01  0.86619454386E+01 -0.25642754260E+02  0.27523802479E+02  0.51100000000E-03 0. -1.
         11    1    3    3    0    0  0.49979553642E+01 -0.86619454386E+01 -0.25715381376E+02  0.27591478688E+02  0.51100000000E-03 0.  1.
<mgrwt>
<rscale>  0 0.20000903E+02</rscale>
<asrwt>0</asrwt>
<pdfrwt beam="1">  1        4 0.28901123E-03 0.20000903E+02</pdfrwt>
<pdfrwt beam="2">  1       -4 0.81902617E-02 0.20000903E+02</pdfrwt>
<totfact> 0.11309261E+06</totfact>
</mgrwt>
</event>
<event>
 5    1  0.1154861E-006  0.2000274E+02  0.7818608E-02  0.1745274E+00
          4   -1    0    0  501    0  0.00000000000E+00  0.00000000000E+00  0.59042472673E+02  0.59059546048E+02  0.14200000000E+01 0. -1.
         -4   -1    0    0    0  501 -0.00000000000E+00 -0.00000000000E+00 -0.13761666239E+01  0.19774313077E+01  0.14200000000E+01 0.  1.
       1023    2    1    2    0    0  0.00000000000E+00  0.00000000000E+00  0.57666306049E+02  0.61036977355E+02  0.20002743595E+02 0.  0.
        -11    1    3    3    0    0 -0.97748539743E+01  0.21146935598E+01  0.29101583474E+02  0.30772095476E+02  0.51100000000E-03 0. -1.
         11    1    3    3    0    0  0.97748539743E+01 -0.21146935598E+01  0.28564722576E+02  0.30264881879E+02  0.51100000000E-03 0.  1.
<mgrwt>
<rscale>  0 0.20002744E+02</rscale>
<asrwt>0</asrwt>
<pdfrwt beam="1">  1        4 0.91310205E-02 0.20002744E+02</pdfrwt>
<pdfrwt beam="2">  1       -4 0.25928244E-03 0.20002744E+02</pdfrwt>
<totfact> 0.11076164E+06</totfact>
</mgrwt>
</event>
<event>
 5    1  0.1154861E-006  0.2000053E+02  0.7818608E-02  0.1745318E+00
          4   -1    0    0  501    0  0.00000000000E+00  0.00000000000E+00  0.16493749469E+01  0.21764277419E+01  0.14200000000E+01 0.  1.
         -4   -1    0    0    0  501 -0.00000000000E+00 -0.00000000000E+00 -0.51741248129E+02  0.51760729882E+02  0.14200000000E+01 0. -1.
       1023    2    1    2    0    0  0.00000000000E+00  0.00000000000E+00 -0.50091873182E+02  0.53937157624E+02  0.20000530335E+02 0.  0.
        -11    1    3    3    0    0 -0.91440333491E+01 -0.40481606448E+01 -0.24868016855E+02  0.26803343318E+02  0.51100000000E-03 0. -1.
         11    1    3    3    0    0  0.91440333491E+01  0.40481606448E+01 -0.25223856328E+02  0.27133814306E+02  0.51100000000E-03 0.  1.
<mgrwt>
<rscale>  0 0.20000530E+02</rscale>
<asrwt>0</asrwt>
<pdfrwt beam="1">  1        4 0.29579115E-03 0.20000530E+02</pdfrwt>
<pdfrwt beam="2">  1       -4 0.80022321E-02 0.20000530E+02</pdfrwt>
<totfact> 0.11357136E+06</totfact>
</mgrwt>
</event>
<event>
 5    1  0.1154861E-006  0.2000074E+02  0.7818608E-02  0.1745313E+00
          4   -1    0    0  501    0  0.00000000000E+00  0.00000000000E+00  0.92067238138E+02  0.92078188179E+02  0.14200000000E+01 0.  1.
         -4   -1    0    0    0  501 -0.00000000000E+00 -0.00000000000E+00 -0.60635850517E+00  0.15440435994E+01  0.14200000000E+01 0. -1.
       1023    2    1    2    0    0  0.00000000000E+00  0.00000000000E+00  0.91460879632E+02  0.93622231778E+02  0.20000744486E+02 0.  0.
        -11    1    3    3    0    0  0.31995006295E+01  0.94744248209E+01  0.45370440457E+02  0.46459427434E+02  0.51100000000E-03 0.  1.
         11    1    3    3    0    0 -0.31995006295E+01 -0.94744248209E+01  0.46090439176E+02  0.47162804344E+02  0.51100000000E-03 0. -1.
<mgrwt>
<rscale>  0 0.20000744E+02</rscale>
<asrwt>0</asrwt>
<pdfrwt beam="1">  1        4 0.14237166E-01 0.20000744E+02</pdfrwt>
<pdfrwt beam="2">  1       -4 0.16625781E-03 0.20000744E+02</pdfrwt>
<totfact> 0.99859993E+05</totfact>
</mgrwt>
</event>
<event>
 5    1  0.1154861E-006  0.2000084E+02  0.7818608E-02  0.1745311E+00
          4   -1    0    0  501    0  0.00000000000E+00  0.00000000000E+00  0.14600538348E+01  0.20367025312E+01  0.14200000000E+01 0. -1.
         -4   -1    0    0    0  501 -0.00000000000E+00 -0.00000000000E+00 -0.56613653646E+02  0.56631459271E+02  0.14200000000E+01 0.  1.
       1023    2    1    2    0    0  0.00000000000E+00  0.00000000000E+00 -0.55153599811E+02  0.58668161802E+02  0.20000840910E+02 0.  0.
        -11    1    3    3    0    0 -0.64441865304E+01  0.76469439073E+01 -0.27366955172E+02  0.29136807080E+02  0.51100000000E-03 0.  1.
         11    1    3    3    0    0  0.64441865304E+01 -0.76469439073E+01 -0.27786644639E+02  0.29531354722E+02  0.51100000000E-03 0. -1.
<mgrwt>
<rscale>  0 0.20000841E+02</rscale>
<asrwt>0</asrwt>
<pdfrwt beam="1">  1        4 0.27035097E-03 0.20000841E+02</pdfrwt>
<pdfrwt beam="2">  1       -4 0.87555187E-02 0.20000841E+02</pdfrwt>
<totfact> 0.11169295E+06</totfact>
</mgrwt>
</event>
<event>
 5    1  0.1154861E-006  0.2000066E+02  0.7818608E-02  0.1745315E+00
         -4   -1    0    0    0  501 -0.00000000000E+00  0.00000000000E+00  0.19492578835E+02  0.19544232644E+02  0.14200000000E+01 0.  1.
          4   -1    0    0  501    0  0.00000000000E+00 -0.00000000000E+00 -0.49725304473E+01  0.51713111538E+01  0.14200000000E+01 0. -1.
       1023    2    1    2    0    0  0.00000000000E+00  0.00000000000E+00  0.14520048387E+02  0.24715543797E+02  0.20000657490E+02 0.  0.
        -11    1    3    3    0    0  0.78380843354E+01 -0.62104528056E+01  0.72157329449E+01  0.12331751388E+02  0.51100000000E-03 0. -1.
         11    1    3    3    0    0 -0.78380843354E+01  0.62104528056E+01  0.73043154424E+01  0.12383792410E+02  0.51100000000E-03 0.  1.
<mgrwt>
<rscale>  0 0.20000657E+02</rscale>
<asrwt>0</asrwt>
<pdfrwt beam="2">  1        4 0.78426885E-03 0.20000657E+02</pdfrwt>
<pdfrwt beam="1">  1       -4 0.30181226E-02 0.20000657E+02</pdfrwt>
<totfact> 0.12740651E+06</totfact>
</mgrwt>
</event>
<event>
 5    1  0.1154861E-006  0.2000037E+02  0.7818608E-02  0.1745321E+00
          4   -1    0    0  501    0  0.00000000000E+00  0.00000000000E+00  0.77327493914E+01  0.78620489156E+01  0.14200000000E+01 0. -1.
         -4   -1    0    0    0  501 -0.00000000000E+00 -0.00000000000E+00 -0.12655933756E+02  0.12735346844E+02  0.14200000000E+01 0.  1.
       1023    2    1    2    0    0  0.00000000000E+00  0.00000000000E+00 -0.49231843649E+01  0.20597395760E+02  0.20000374191E+02 0.  0.
        -11    1    3    3    0    0  0.99514780955E+01 -0.98400078236E+00 -0.25231067987E+01  0.10313401088E+02  0.51100000000E-03 0.  1.
         11    1    3    3    0    0 -0.99514780955E+01  0.98400078236E+00 -0.24000775662E+01  0.10283994672E+02  0.51100000000E-03 0. -1.
<mgrwt>
<rscale>  0 0.20000374E+02</rscale>
<asrwt>0</asrwt>
<pdfrwt beam="1">  1        4 0.12057086E-02 0.20000374E+02</pdfrwt>
<pdfrwt beam="2">  1       -4 0.19631215E-02 0.20000374E+02</pdfrwt>
<totfact> 0.12978064E+06</totfact>
</mgrwt>
</event>
<event>
 5    1  0.1176258E-006  0.2000086E+02  0.7818608E-02  0.1745311E+00
          4   -1    0    0  501    0  0.00000000000E+00  0.00000000000E+00  0.56475626750E+01  0.58233464750E+01  0.14200000000E+01 0.  1.
         -4   -1    0    0    0  501 -0.00000000000E+00 -0.00000000000E+00 -0.17231468817E+02  0.17289879051E+02  0.14200000000E+01 0. -1.
       1023    2    1    2    0    0  0.00000000000E+00  0.00000000000E+00 -0.11583906142E+02  0.23113225526E+02  0.20000857799E+02 0.  0.
        -11    1    3    3    0    0 -0.94150575296E+01 -0.33711548520E+01 -0.58198938360E+01  0.11570616139E+02  0.51100000000E-03 0. -1.
         11    1    3    3    0    0  0.94150575296E+01  0.33711548520E+01 -0.57640123059E+01  0.11542609386E+02  0.51100000000E-03 0.  1.
<mgrwt>
<rscale>  0 0.20000858E+02</rscale>
<asrwt>0</asrwt>
<pdfrwt beam="1">  1        4 0.88687073E-03 0.20000858E+02</pdfrwt>
<pdfrwt beam="2">  1       -4 0.26690101E-02 0.20000858E+02</pdfrwt>
<totfact> 0.12830980E+06</totfact>
</mgrwt>
</event>
<event>
 5    1  0.1154861E-006  0.2000245E+02  0.7818608E-02  0.1745279E+00
          4   -1    0    0  501    0  0.00000000000E+00  0.00000000000E+00  0.43120325061E+01  0.45398264651E+01  0.14200000000E+01 0.  1.
         -4   -1    0    0    0  501 -0.00000000000E+00 -0.00000000000E+00 -0.22348758712E+02  0.22393825398E+02  0.14200000000E+01 0. -1.
       1023    2    1    2    0    0  0.00000000000E+00  0.00000000000E+00 -0.18036726206E+02  0.26933651863E+02  0.20002452611E+02 0.  0.
        -11    1    3    3    0    0 -0.66810860031E+01 -0.74415175999E+01 -0.91623396685E+01  0.13563243079E+02  0.51100000000E-03 0.  1.
         11    1    3    3    0    0  0.66810860031E+01  0.74415175999E+01 -0.88743865373E+01  0.13370408784E+02  0.51100000000E-03 0. -1.
<mgrwt>
<rscale>  0 0.20002453E+02</rscale>
<asrwt>0</asrwt>
<pdfrwt beam="1">  1        4 0.68437891E-03 0.20002453E+02</pdfrwt>
<pdfrwt beam="2">  1       -4 0.34592598E-02 0.20002453E+02</pdfrwt>
<totfact> 0.12615952E+06</totfact>
</mgrwt>
</event>
<event>
 5    1  0.1154861E-006  0.2000023E+02  0.7818608E-02  0.1745324E+00
          4   -1    0    0  501    0  0.00000000000E+00  0.00000000000E+00  0.30040106279E+02  0.30073649350E+02  0.14200000000E+01 0.  1.
         -4   -1    0    0    0  501 -0.00000000000E+00 -0.00000000000E+00 -0.31404120985E+01  0.34465327720E+01  0.14200000000E+01 0. -1.
       1023    2    1    2    0    0  0.00000000000E+00  0.00000000000E+00  0.26899694180E+02  0.33520182122E+02  0.20000226562E+02 0.  0.
        -11    1    3    3    0    0 -0.55064931643E+01  0.83474625546E+01  0.13493141469E+02  0.16794834475E+02  0.51100000000E-03 0. -1.
         11    1    3    3    0    0  0.55064931643E+01 -0.83474625546E+01  0.13406552711E+02  0.16725347647E+02  0.51100000000E-03 0.  1.
<mgrwt>
<rscale>  0 0.20000227E+02</rscale>
<asrwt>0</asrwt>
<pdfrwt beam="1">  1        4 0.46476828E-02 0.20000227E+02</pdfrwt>
<pdfrwt beam="2">  1       -4 0.50926831E-03 0.20000227E+02</pdfrwt>
<totfact> 0.12275254E+06</totfact>
</mgrwt>
</event>
<event>
 5    1  0.1154861E-006  0.2000026E+02  0.7818608E-02  0.1745323E+00
         -4   -1    0    0    0  501 -0.00000000000E+00  0.00000000000E+00  0.43793206684E+02  0.43816222472E+02  0.14200000000E+01 0. -1.
          4   -1    0    0  501    0  0.00000000000E+00 -0.00000000000E+00 -0.20367751151E+01  0.24829121751E+01  0.14200000000E+01 0.  1.
       1023    2    1    2    0    0  0.00000000000E+00  0.00000000000E+00  0.41756431569E+02  0.46299134647E+02  0.20000257290E+02 0.  0.
        -11    1    3    3    0    0 -0.38311018507E+01 -0.92371505391E+01  0.20839398078E+02  0.23114558269E+02  0.51100000000E-03 0.  1.
         11    1    3    3    0    0  0.38311018507E+01  0.92371505391E+01  0.20917033491E+02  0.23184576378E+02  0.51100000000E-03 0. -1.
<mgrwt>
<rscale>  0 0.20000257E+02</rscale>
<asrwt>0</asrwt>
<pdfrwt beam="2">  1        4 0.34943870E-03 0.20000257E+02</pdfrwt>
<pdfrwt beam="1">  1       -4 0.67735051E-02 0.20000257E+02</pdfrwt>
<totfact> 0.11678440E+06</totfact>
</mgrwt>
</event>
<event>
 5    1  0.1154861E-006  0.2000349E+02  0.7818608E-02  0.1745259E+00
         -4   -1    0    0    0  501 -0.00000000000E+00  0.00000000000E+00  0.35433564748E+01  0.38172994522E+01  0.14200000000E+01 0.  1.
          4   -1    0    0  501    0  0.00000000000E+00 -0.00000000000E+00 -0.26887611868E+02  0.26925082580E+02  0.14200000000E+01 0. -1.
       1023    2    1    2    0    0  0.00000000000E+00  0.00000000000E+00 -0.23344255393E+02  0.30742382032E+02  0.20003494524E+02 0.  0.
        -11    1    3    3    0    0 -0.99283833023E+01  0.11969498152E+01 -0.11935930129E+02  0.15571509630E+02  0.51100000000E-03 0. -1.
         11    1    3    3    0    0  0.99283833023E+01 -0.11969498152E+01 -0.11408325264E+02  0.15170872402E+02  0.51100000000E-03 0.  1.
<mgrwt>
<rscale>  0 0.20003495E+02</rscale>
<asrwt>0</asrwt>
<pdfrwt beam="2">  1        4 0.41605104E-02 0.20003495E+02</pdfrwt>
<pdfrwt beam="1">  1       -4 0.56908668E-03 0.20003495E+02</pdfrwt>
<totfact> 0.12412739E+06</totfact>
</mgrwt>
</event>
<event>
 5    1  0.1154861E-006  0.2000097E+02  0.7818608E-02  0.1745309E+00
         -4   -1    0    0    0  501 -0.00000000000E+00  0.00000000000E+00  0.98723858953E+00  0.17294623536E+01  0.14200000000E+01 0.  1.
          4   -1    0    0  501    0  0.00000000000E+00 -0.00000000000E+00 -0.72874805699E+02  0.72888639072E+02  0.14200000000E+01 0. -1.
       1023    2    1    2    0    0  0.00000000000E+00  0.00000000000E+00 -0.71887567110E+02  0.74618101425E+02  0.20000968860E+02 0.  0.
        -11    1    3    3    0    0 -0.73916679317E+01  0.67359226503E+01 -0.35881377442E+02  0.37248928255E+02  0.51100000000E-03 0.  1.
         11    1    3    3    0    0  0.73916679317E+01 -0.67359226503E+01 -0.36006189667E+02  0.37369173170E+02  0.51100000000E-03 0. -1.
<mgrwt>
<rscale>  0 0.20000969E+02</rscale>
<asrwt>0</asrwt>
<pdfrwt beam="2">  1        4 0.11269664E-01 0.20000969E+02</pdfrwt>
<pdfrwt beam="1">  1       -4 0.21004116E-03 0.20000969E+02</pdfrwt>
<totfact> 0.10589670E+06</totfact>
</mgrwt>
</event>
<event>
 5    1  0.1154861E-006  0.2000369E+02  0.7818608E-02  0.1745255E+00
         -4   -1    0    0    0  501 -0.00000000000E+00  0.00000000000E+00  0.47207149230E+02  0.47228501336E+02  0.14200000000E+01 0.  1.
          4   -1    0    0  501    0  0.00000000000E+00 -0.00000000000E+00 -0.18568543625E+01  0.23375859607E+01  0.14200000000E+01 0. -1.
       1023    2    1    2    0    0  0.00000000000E+00  0.00000000000E+00  0.45350294868E+02  0.49566087297E+02  0.20003693792E+02 0.  0.
        -11    1    3    3    0    0  0.11846574293E+01  0.99305967823E+01  0.22354217117E+02  0.24489409729E+02  0.51100000000E-03 0. -1.
         11    1    3    3    0    0 -0.11846574293E+01 -0.99305967823E+01  0.22996077751E+02  0.25076677568E+02  0.51100000000E-03 0.  1.
<mgrwt>
<rscale>  0 0.20003694E+02</rscale>
<asrwt>0</asrwt>
<pdfrwt beam="2">  1        4 0.32429175E-03 0.20003694E+02</pdfrwt>
<pdfrwt beam="1">  1       -4 0.73012597E-02 0.20003694E+02</pdfrwt>
<totfact> 0.11534205E+06</totfact>
</mgrwt>
</event>
<event>
 4    1  0.1154861E-006  0.2005948E+02  0.7818608E-02  0.1744148E+00
          4   -1    0    0  501    0  0.00000000000E+00  0.00000000000E+00  0.34910508108E+00  0.14622839525E+01  0.14200000000E+01 0.  1.
         -4   -1    0    0    0  501 -0.00000000000E+00 -0.00000000000E+00 -0.10994958998E+03  0.10995875925E+03  0.14200000000E+01 0. -1.
        -11    1    1    2    0    0 -0.75474132572E+01 -0.65858101841E+01 -0.51971779624E+02  0.52928274299E+02  0.51100000000E-03 0.  1.
         11    1    1    2    0    0  0.75474132572E+01  0.65858101841E+01 -0.57628705271E+02  0.58492768904E+02  0.51100000000E-03 0. -1.
<mgrwt>
<rscale>  0 0.20059476E+02</rscale>
<asrwt>0</asrwt>
<pdfrwt beam="1">  1        4 0.14004303E-03 0.20059476E+02</pdfrwt>
<pdfrwt beam="2">  1       -4 0.17001645E-01 0.20059476E+02</pdfrwt>
<totfact> 0.94315095E+05</totfact>
</mgrwt>
</event>
<event>
 5    1  0.1154861E-006  0.2000040E+02  0.7818608E-02  0.1745320E+00
          4   -1    0    0  501    0  0.00000000000E+00  0.00000000000E+00  0.12281753014E+01  0.18774489530E+01  0.14200000000E+01 0. -1.
         -4   -1    0    0    0  501 -0.00000000000E+00 -0.00000000000E+00 -0.63743057742E+02  0.63758872404E+02  0.14200000000E+01 0.  1.
       1023    2    1    2    0    0  0.00000000000E+00  0.00000000000E+00 -0.62514882440E+02  0.65636321357E+02  0.20000403866E+02 0.  0.
        -11    1    3    3    0    0 -0.28399849696E+01 -0.95883509877E+01 -0.31108884601E+02  0.32676668904E+02  0.51100000000E-03 0. -1.
         11    1    3    3    0    0  0.28399849696E+01  0.95883509877E+01 -0.31405997839E+02  0.32959652453E+02  0.51100000000E-03 0.  1.
<mgrwt>
<rscale>  0 0.20000404E+02</rscale>
<asrwt>0</asrwt>
<pdfrwt beam="1">  1        4 0.24011074E-03 0.20000404E+02</pdfrwt>
<pdfrwt beam="2">  1       -4 0.98577829E-02 0.20000404E+02</pdfrwt>
<totfact> 0.10907180E+06</totfact>
</mgrwt>
</event>
<event>
 5    1  0.1227418E-006  0.2000119E+02  0.7818608E-02  0.1745304E+00
         -4   -1    0    0    0  501 -0.00000000000E+00  0.00000000000E+00  0.22916073940E+02  0.22960027108E+02  0.14200000000E+01 0. -1.
          4   -1    0    0  501    0  0.00000000000E+00 -0.00000000000E+00 -0.41992238350E+01  0.44328186086E+01  0.14200000000E+01 0.  1.
       1023    2    1    2    0    0  0.00000000000E+00  0.00000000000E+00  0.18716850105E+02  0.27392845717E+02  0.20001187930E+02 0.  0.
        -11    1    3    3    0    0 -0.31953256538E+01  0.94763518065E+01  0.93269013150E+01  0.13674883473E+02  0.51100000000E-03 0.  1.
         11    1    3    3    0    0  0.31953256538E+01 -0.94763518065E+01  0.93899487895E+01  0.13717962244E+02  0.51100000000E-03 0. -1.
<mgrwt>
<rscale>  0 0.20001188E+02</rscale>
<asrwt>0</asrwt>
<pdfrwt beam="2">  1        4 0.66738428E-03 0.20001188E+02</pdfrwt>
<pdfrwt beam="1">  1       -4 0.35468997E-02 0.20001188E+02</pdfrwt>
<totfact> 0.12592698E+06</totfact>
</mgrwt>
</event>
<event>
 5    1  0.1165019E-006  0.2000070E+02  0.7818608E-02  0.1745314E+00
          4   -1    0    0  501    0  0.00000000000E+00  0.00000000000E+00  0.24338460451E+02  0.24379849407E+02  0.14200000000E+01 0.  1.
         -4   -1    0    0    0  501 -0.00000000000E+00 -0.00000000000E+00 -0.39399869849E+01  0.41880660741E+01  0.14200000000E+01 0. -1.
       1023    2    1    2    0    0  0.00000000000E+00  0.00000000000E+00  0.20398473466E+02  0.28567915481E+02  0.20000701868E+02 0.  0.
        -11    1    3    3    0    0  0.62773882024E+01  0.77846387272E+01  0.10158440420E+02  0.14254827771E+02  0.51100000000E-03 0.  1.
         11    1    3    3    0    0 -0.62773882024E+01 -0.77846387272E+01  0.10240033046E+02  0.14313087710E+02  0.51100000000E-03 0. -1.
<mgrwt>
<rscale>  0 0.20000702E+02</rscale>
<asrwt>0</asrwt>
<pdfrwt beam="1">  1        4 0.37666454E-02 0.20000702E+02</pdfrwt>
<pdfrwt beam="2">  1       -4 0.62841860E-03 0.20000702E+02</pdfrwt>
<totfact> 0.12530332E+06</totfact>
</mgrwt>
</event>
<event>
 5    1  0.1176035E-006  0.2000086E+02  0.7818608E-02  0.1745311E+00
         -4   -1    0    0    0  501 -0.00000000000E+00  0.00000000000E+00  0.15376818944E+02  0.15442245977E+02  0.14200000000E+01 0.  1.
          4   -1    0    0  501    0  0.00000000000E+00 -0.00000000000E+00 -0.63459886489E+01  0.65029202619E+01  0.14200000000E+01 0. -1.
       1023    2    1    2    0    0  0.00000000000E+00  0.00000000000E+00  0.90308302948E+01  0.21945166239E+02  0.20000860618E+02 0.  0.
        -11    1    3    3    0    0 -0.80526211383E+01  0.59294604597E+01  0.44348051177E+01  0.10939410644E+02  0.51100000000E-03 0. -1.
         11    1    3    3    0    0  0.80526211383E+01 -0.59294604597E+01  0.45960251770E+01  0.11005755596E+02  0.51100000000E-03 0.  1.
<mgrwt>
<rscale>  0 0.20000861E+02</rscale>
<asrwt>0</asrwt>
<pdfrwt beam="2">  1        4 0.99341047E-03 0.20000861E+02</pdfrwt>
<pdfrwt beam="1">  1       -4 0.23827689E-02 0.20000861E+02</pdfrwt>
<totfact> 0.12898276E+06</totfact>
</mgrwt>
</event>
<event>
 5    1  0.1154861E-006  0.2000077E+02  0.7818608E-02  0.1745313E+00
         -4   -1    0    0    0  501 -0.00000000000E+00  0.00000000000E+00  0.10146430729E+03  0.10147424330E+03  0.14200000000E+01 0. -1.
          4   -1    0    0  501    0  0.00000000000E+00 -0.00000000000E+00 -0.45894491629E+00  0.14923238376E+01  0.14200000000E+01 0.  1.
       1023    2    1    2    0    0  0.00000000000E+00  0.00000000000E+00  0.10100536238E+03  0.10296656714E+03  0.20000767995E+02 0.  0.
        -11    1    3    3    0    0  0.95491642549E+01 -0.29698570636E+01  0.50672717035E+02  0.51650080744E+02  0.51100000000E-03 0.  1.
         11    1    3    3    0    0 -0.95491642549E+01  0.29698570636E+01  0.50332645341E+02  0.51316486398E+02  0.51100000000E-03 0. -1.
<mgrwt>
<rscale>  0 0.20000768E+02</rscale>
<asrwt>0</asrwt>
<pdfrwt beam="2">  1        4 0.15086193E-03 0.20000768E+02</pdfrwt>
<pdfrwt beam="1">  1       -4 0.15690146E-01 0.20000768E+02</pdfrwt>
<totfact> 0.97168403E+05</totfact>
</mgrwt>
</event>
<event>
 5    1  0.1154861E-006  0.2000026E+02  0.7818608E-02  0.1745323E+00
         -4   -1    0    0    0  501 -0.00000000000E+00  0.00000000000E+00  0.60592928351E+01  0.62234580148E+01  0.14200000000E+01 0.  1.
          4   -1    0    0  501    0  0.00000000000E+00 -0.00000000000E+00 -0.16087563267E+02  0.16150111203E+02  0.14200000000E+01 0. -1.
       1023    2    1    2    0    0  0.00000000000E+00  0.00000000000E+00 -0.10028270432E+02  0.22373569218E+02  0.20000259791E+02 0.  0.
        -11    1    3    3    0    0 -0.16739094236E+01  0.98590222315E+01 -0.49945812118E+01  0.11178020123E+02  0.51100000000E-03 0.  1.
         11    1    3    3    0    0  0.16739094236E+01 -0.98590222315E+01 -0.50336892203E+01  0.11195549095E+02  0.51100000000E-03 0. -1.
<mgrwt>
<rscale>  0 0.20000260E+02</rscale>
<asrwt>0</asrwt>
<pdfrwt beam="2">  1        4 0.24924492E-02 0.20000260E+02</pdfrwt>
<pdfrwt beam="1">  1       -4 0.94963838E-03 0.20000260E+02</pdfrwt>
<totfact> 0.12874256E+06</totfact>
</mgrwt>
</event>
<event>
 5    1  0.1154861E-006  0.2000025E+02  0.7818608E-02  0.1745323E+00
          4   -1    0    0  501    0  0.00000000000E+00  0.00000000000E+00  0.50603088635E+02  0.50623008399E+02  0.14200000000E+01 0.  1.
         -4   -1    0    0    0  501 -0.00000000000E+00 -0.00000000000E+00 -0.16981159637E+01  0.22135938711E+01  0.14200000000E+01 0. -1.
       1023    2    1    2    0    0  0.00000000000E+00  0.00000000000E+00  0.48904972671E+02  0.52836602270E+02  0.20000254686E+02 0.  0.
        -11    1    3    3    0    0 -0.99631937259E+01 -0.85850663809E+00  0.24407985852E+02  0.26377111981E+02  0.51100000000E-03 0.  1.
         11    1    3    3    0    0  0.99631937259E+01  0.85850663809E+00  0.24496986819E+02  0.26459490289E+02  0.51100000000E-03 0. -1.
<mgrwt>
<rscale>  0 0.20000255E+02</rscale>
<asrwt>0</asrwt>
<pdfrwt beam="1">  1        4 0.78262757E-02 0.20000255E+02</pdfrwt>
<pdfrwt beam="2">  1       -4 0.30243302E-03 0.20000255E+02</pdfrwt>
<totfact> 0.11402254E+06</totfact>
</mgrwt>
</event>
<event>
 5    1  0.1154861E-006  0.2000288E+02  0.7818608E-02  0.1745271E+00
          4   -1    0    0  501    0  0.00000000000E+00  0.00000000000E+00  0.35790897195E+01  0.38504912960E+01  0.14200000000E+01 0. -1.
         -4   -1    0    0    0  501 -0.00000000000E+00 -0.00000000000E+00 -0.26636163721E+02  0.26673987662E+02  0.14200000000E+01 0.  1.
       1023    2    1    2    0    0  0.00000000000E+00  0.00000000000E+00 -0.23057074002E+02  0.30524478958E+02  0.20002878646E+02 0.  0.
        -11    1    3    3    0    0 -0.57446422943E+01  0.81870199753E+01 -0.11491877797E+02  0.15234548458E+02  0.51100000000E-03 0. -1.
         11    1    3    3    0    0  0.57446422943E+01 -0.81870199753E+01 -0.11565196205E+02  0.15289930500E+02  0.51100000000E-03 0.  1.
<mgrwt>
<rscale>  0 0.20002879E+02</rscale>
<asrwt>0</asrwt>
<pdfrwt beam="1">  1        4 0.57441578E-03 0.20002879E+02</pdfrwt>
<pdfrwt beam="2">  1       -4 0.41216578E-02 0.20002879E+02</pdfrwt>
<totfact> 0.12424803E+06</totfact>
</mgrwt>
</event>
<event>
 5    1  0.1154861E-006  0.2000040E+02  0.7818608E-02  0.1745320E+00
         -4   -1    0    0    0  501 -0.00000000000E+00  0.00000000000E+00  0.10548477588E+02  0.10643626235E+02  0.14200000000E+01 0. -1.
          4   -1    0    0  501    0  0.00000000000E+00 -0.00000000000E+00 -0.92885025496E+01  0.93964184460E+01  0.14200000000E+01 0.  1.
       1023    2    1    2    0    0  0.00000000000E+00  0.00000000000E+00  0.12599750385E+01  0.20040044681E+02  0.20000396339E+02 0.  0.
        -11    1    3    3    0    0 -0.98909883638E+01 -0.14732444183E+01  0.58673670473E+00  0.10017303038E+02  0.51100000000E-03 0.  1.
         11    1    3    3    0    0  0.98909883638E+01  0.14732444183E+01  0.67323833379E+00  0.10022741643E+02  0.51100000000E-03 0. -1.
<mgrwt>
<rscale>  0 0.20000396E+02</rscale>
<asrwt>0</asrwt>
<pdfrwt beam="2">  1        4 0.14446207E-02 0.20000396E+02</pdfrwt>
<pdfrwt beam="1">  1       -4 0.16384631E-02 0.20000396E+02</pdfrwt>
<totfact> 0.13011142E+06</totfact>
</mgrwt>
</event>
<event>
 5    1  0.1154861E-006  0.2000061E+02  0.7818608E-02  0.1745316E+00
         -4   -1    0    0    0  501 -0.00000000000E+00  0.00000000000E+00  0.13100145917E+02  0.13176882144E+02  0.14200000000E+01 0.  1.
          4   -1    0    0  501    0  0.00000000000E+00 -0.00000000000E+00 -0.74678429480E+01  0.76016497088E+01  0.14200000000E+01 0. -1.
       1023    2    1    2    0    0  0.00000000000E+00  0.00000000000E+00  0.56323029689E+01  0.20778531853E+02  0.20000613721E+02 0.  0.
        -11    1    3    3    0    0  0.89928419797E+01  0.43741969376E+01  0.28540579933E+01  0.10399541000E+02  0.51100000000E-03 0. -1.
         11    1    3    3    0    0 -0.89928419797E+01 -0.43741969376E+01  0.27782449757E+01  0.10378990853E+02  0.51100000000E-03 0.  1.
<mgrwt>
<rscale>  0 0.20000614E+02</rscale>
<asrwt>0</asrwt>
<pdfrwt beam="2">  1        4 0.11650945E-02 0.20000614E+02</pdfrwt>
<pdfrwt beam="1">  1       -4 0.20316027E-02 0.20000614E+02</pdfrwt>
<totfact> 0.12967037E+06</totfact>
</mgrwt>
</event>
<event>
 5    1  0.1154861E-006  0.2000038E+02  0.7818608E-02  0.1745321E+00
          4   -1    0    0  501    0  0.00000000000E+00  0.00000000000E+00  0.75710600884E+01  0.77030741177E+01  0.14200000000E+01 0. -1.
         -4   -1    0    0    0  501 -0.00000000000E+00 -0.00000000000E+00 -0.12923286388E+02  0.13001066536E+02  0.14200000000E+01 0.  1.
       1023    2    1    2    0    0  0.00000000000E+00  0.00000000000E+00 -0.53522263000E+01  0.20704140654E+02  0.20000377843E+02 0.  0.
        -11    1    3    3    0    0 -0.54503124743E+01  0.83843778588E+01 -0.26853752938E+01  0.10354464683E+02  0.51100000000E-03 0.  1.
         11    1    3    3    0    0  0.54503124743E+01 -0.83843778588E+01 -0.26668510062E+01  0.10349675971E+02  0.51100000000E-03 0. -1.
<mgrwt>
<rscale>  0 0.20000378E+02</rscale>
<asrwt>0</asrwt>
<pdfrwt beam="1">  1        4 0.11809165E-02 0.20000378E+02</pdfrwt>
<pdfrwt beam="2">  1       -4 0.20043359E-02 0.20000378E+02</pdfrwt>
<totfact> 0.12971756E+06</totfact>
</mgrwt>
</event>
<event>
 5    1  0.1154861E-006  0.2000413E+02  0.7818608E-02  0.1745246E+00
         -4   -1    0    0    0  501 -0.00000000000E+00  0.00000000000E+00  0.25923473250E+00  0.14434689628E+01  0.14200000000E+01 0. -1.
          4   -1    0    0  501    0  0.00000000000E+00 -0.00000000000E+00 -0.11631719881E+03  0.11632586617E+03  0.14200000000E+01 0.  1.
       1023    2    1    2    0    0  0.00000000000E+00  0.00000000000E+00 -0.11605796408E+03  0.11776933513E+03  0.20004131339E+02 0.  0.
        -11    1    3    3    0    0 -0.98464548042E+01  0.17523425570E+01 -0.57240425674E+02  0.58107570146E+02  0.51100000000E-03 0. -1.
         11    1    3    3    0    0  0.98464548042E+01 -0.17523425570E+01 -0.58817538408E+02  0.59661764987E+02  0.51100000000E-03 0.  1.
<mgrwt>
<rscale>  0 0.20004131E+02</rscale>
<asrwt>0</asrwt>
<pdfrwt beam="2">  1        4 0.17986703E-01 0.20004131E+02</pdfrwt>
<pdfrwt beam="1">  1       -4 0.13164402E-03 0.20004131E+02</pdfrwt>
<totfact> 0.93185243E+05</totfact>
</mgrwt>
</event>
<event>
 5    1  0.1173083E-006  0.2000118E+02  0.7818608E-02  0.1745305E+00
         -4   -1    0    0    0  501 -0.00000000000E+00  0.00000000000E+00  0.27764436673E+02  0.27800725598E+02  0.14200000000E+01 0. -1.
          4   -1    0    0  501    0  0.00000000000E+00 -0.00000000000E+00 -0.34219561907E+01  0.37048865261E+01  0.14200000000E+01 0.  1.
       1023    2    1    2    0    0  0.00000000000E+00  0.00000000000E+00  0.24342480483E+02  0.31505612124E+02  0.20001180947E+02 0.  0.
        -11    1    3    3    0    0 -0.82530294105E+01  0.56477780462E+01  0.12240230014E+02  0.15806110286E+02  0.51100000000E-03 0.  1.
         11    1    3    3    0    0  0.82530294105E+01 -0.56477780462E+01  0.12102250469E+02  0.15699501838E+02  0.51100000000E-03 0. -1.
<mgrwt>
<rscale>  0 0.20001181E+02</rscale>
<asrwt>0</asrwt>
<pdfrwt beam="2">  1        4 0.55101012E-03 0.20001181E+02</pdfrwt>
<pdfrwt beam="1">  1       -4 0.42960072E-02 0.20001181E+02</pdfrwt>
<totfact> 0.12376306E+06</totfact>
</mgrwt>
</event>
<event>
 5    1  0.1154861E-006  0.2000243E+02  0.7818608E-02  0.1745280E+00
         -4   -1    0    0    0  501 -0.00000000000E+00  0.00000000000E+00  0.43671957959E+02  0.43695037613E+02  0.14200000000E+01 0. -1.
          4   -1    0    0  501    0  0.00000000000E+00 -0.00000000000E+00 -0.20442083902E+01  0.24890134476E+01  0.14200000000E+01 0.  1.
       1023    2    1    2    0    0  0.00000000000E+00  0.00000000000E+00  0.41627749569E+02  0.46184051061E+02  0.20002425807E+02 0.  0.
        -11    1    3    3    0    0  0.54974099101E+01 -0.83545063166E+01  0.20976613208E+02  0.23238708946E+02  0.51100000000E-03 0.  1.
         11    1    3    3    0    0 -0.54974099101E+01  0.83545063166E+01  0.20651136361E+02  0.22945342115E+02  0.51100000000E-03 0. -1.
<mgrwt>
<rscale>  0 0.20002426E+02</rscale>
<asrwt>0</asrwt>
<pdfrwt beam="2">  1        4 0.35048471E-03 0.20002426E+02</pdfrwt>
<pdfrwt beam="1">  1       -4 0.67547542E-02 0.20002426E+02</pdfrwt>
<totfact> 0.11680906E+06</totfact>
</mgrwt>
</event>
<event>
 5    1  0.1154861E-006  0.2000027E+02  0.7818608E-02  0.1745323E+00
         -4   -1    0    0    0  501 -0.00000000000E+00  0.00000000000E+00  0.25401222237E+02  0.25440882279E+02  0.14200000000E+01 0.  1.
          4   -1    0    0  501    0  0.00000000000E+00 -0.00000000000E+00 -0.37646382193E+01  0.40235433292E+01  0.14200000000E+01 0. -1.
       1023    2    1    2    0    0  0.00000000000E+00  0.00000000000E+00  0.21636584017E+02  0.29464425608E+02  0.20000265210E+02 0.  0.
        -11    1    3    3    0    0 -0.62780006395E+00  0.99803087420E+01  0.10753131392E+02  0.14684363469E+02  0.51100000000E-03 0.  1.
         11    1    3    3    0    0  0.62780006395E+00 -0.99803087420E+01  0.10883452626E+02  0.14780062139E+02  0.51100000000E-03 0. -1.
<mgrwt>
<rscale>  0 0.20000265E+02</rscale>
<asrwt>0</asrwt>
<pdfrwt beam="2">  1        4 0.60214168E-03 0.20000265E+02</pdfrwt>
<pdfrwt beam="1">  1       -4 0.39308468E-02 0.20000265E+02</pdfrwt>
<totfact> 0.12483472E+06</totfact>
</mgrwt>
</event>
<event>
 5    1  0.1154861E-006  0.2000046E+02  0.7818608E-02  0.1745319E+00
         -4   -1    0    0    0  501 -0.00000000000E+00  0.00000000000E+00  0.10115058392E+01  0.17434288235E+01  0.14200000000E+01 0.  1.
          4   -1    0    0  501    0  0.00000000000E+00 -0.00000000000E+00 -0.71859514599E+02  0.71873543383E+02  0.14200000000E+01 0. -1.
       1023    2    1    2    0    0  0.00000000000E+00  0.00000000000E+00 -0.70848008760E+02  0.73616972206E+02  0.20000456285E+02 0.  0.
        -11    1    3    3    0    0  0.90717607909E+01 -0.42079070221E+01 -0.35553475462E+02  0.36933087375E+02  0.51100000000E-03 0. -1.
         11    1    3    3    0    0 -0.90717607909E+01  0.42079070221E+01 -0.35294533298E+02  0.36683884832E+02  0.51100000000E-03 0.  1.
<mgrwt>
<rscale>  0 0.20000456E+02</rscale>
<asrwt>0</asrwt>
<pdfrwt beam="2">  1        4 0.11112688E-01 0.20000456E+02</pdfrwt>
<pdfrwt beam="1">  1       -4 0.21299725E-03 0.20000456E+02</pdfrwt>
<totfact> 0.10624436E+06</totfact>
</mgrwt>
</event>
<event>
 5    1  0.1154861E-006  0.2000110E+02  0.7818608E-02  0.1745306E+00
          4   -1    0    0  501    0  0.00000000000E+00  0.00000000000E+00  0.11449359454E+01  0.18240828707E+01  0.14200000000E+01 0. -1.
         -4   -1    0    0    0  501 -0.00000000000E+00 -0.00000000000E+00 -0.66681323959E+02  0.66696441921E+02  0.14200000000E+01 0.  1.
       1023    2    1    2    0    0  0.00000000000E+00  0.00000000000E+00 -0.65536388014E+02  0.68520524792E+02  0.20001104066E+02 0.  0.
        -11    1    3    3    0    0  0.83268821630E+01 -0.55383995721E+01 -0.32817164016E+02  0.34307099712E+02  0.51100000000E-03 0.  1.
         11    1    3    3    0    0 -0.83268821630E+01  0.55383995721E+01 -0.32719223998E+02  0.34213425080E+02  0.51100000000E-03 0. -1.
<mgrwt>
<rscale>  0 0.20001104E+02</rscale>
<asrwt>0</asrwt>
<pdfrwt beam="1">  1        4 0.22954904E-03 0.20001104E+02</pdfrwt>
<pdfrwt beam="2">  1       -4 0.10312068E-01 0.20001104E+02</pdfrwt>
<totfact> 0.10802147E+06</totfact>
</mgrwt>
</event>
<event>
 4    1  0.1154861E-006  0.2003099E+02  0.7818608E-02  0.1744712E+00
          4   -1    0    0  501    0  0.00000000000E+00  0.00000000000E+00  0.15580061871E+02  0.15644638951E+02  0.14200000000E+01 0.  1.
         -4   -1    0    0    0  501 -0.00000000000E+00 -0.00000000000E+00 -0.62810545226E+01  0.64395687679E+01  0.14200000000E+01 0. -1.
        -11    1    1    2    0    0 -0.82270007551E+01 -0.57118671172E+01  0.46112232783E+01  0.11025985116E+02  0.51100000000E-03 0.  1.
         11    1    1    2    0    0  0.82270007551E+01  0.57118671172E+01  0.46877840699E+01  0.11058222603E+02  0.51100000000E-03 0. -1.
<mgrwt>
<rscale>  0 0.20030993E+02</rscale>
<asrwt>0</asrwt>
<pdfrwt beam="1">  1        4 0.24140935E-02 0.20030993E+02</pdfrwt>
<pdfrwt beam="2">  1       -4 0.98347695E-03 0.20030993E+02</pdfrwt>
<totfact> 0.12850686E+06</totfact>
</mgrwt>
</event>
<event>
 5    1  0.1154861E-006  0.2000009E+02  0.7818608E-02  0.1745326E+00
         -4   -1    0    0    0  501 -0.00000000000E+00  0.00000000000E+00  0.11536517016E+01  0.18295661367E+01  0.14200000000E+01 0. -1.
          4   -1    0    0  501    0  0.00000000000E+00 -0.00000000000E+00 -0.66357077816E+02  0.66372269633E+02  0.14200000000E+01 0.  1.
       1023    2    1    2    0    0  0.00000000000E+00  0.00000000000E+00 -0.65203426114E+02  0.68201835770E+02  0.20000090634E+02 0.  0.
        -11    1    3    3    0    0  0.44309404172E+01  0.89647674221E+01 -0.32516928545E+02  0.34019860819E+02  0.51100000000E-03 0.  1.
         11    1    3    3    0    0 -0.44309404172E+01 -0.89647674221E+01 -0.32686497569E+02  0.34181974951E+02  0.51100000000E-03 0. -1.
<mgrwt>
<rscale>  0 0.20000091E+02</rscale>
<asrwt>0</asrwt>
<pdfrwt beam="2">  1        4 0.10261941E-01 0.20000091E+02</pdfrwt>
<pdfrwt beam="1">  1       -4 0.23064695E-03 0.20000091E+02</pdfrwt>
<totfact> 0.10814647E+06</totfact>
</mgrwt>
</event>
<event>
 4    1  0.1154861E-006  0.2001994E+02  0.7818608E-02  0.1744932E+00
         -4   -1    0    0    0  501 -0.00000000000E+00  0.00000000000E+00  0.24154136239E+02  0.24195840499E+02  0.14200000000E+01 0. -1.
          4   -1    0    0  501    0  0.00000000000E+00 -0.00000000000E+00 -0.39800877889E+01  0.42258133900E+01  0.14200000000E+01 0.  1.
        -11    1    1    2    0    0  0.76215233053E+01  0.64885641431E+01  0.10232235645E+02  0.14313899842E+02  0.51100000000E-03 0.  1.
         11    1    1    2    0    0 -0.76215233053E+01 -0.64885641431E+01  0.99418128051E+01  0.14107754047E+02  0.51100000000E-03 0. -1.
<mgrwt>
<rscale>  0 0.20019945E+02</rscale>
<asrwt>0</asrwt>
<pdfrwt beam="2">  1        4 0.63443120E-03 0.20019945E+02</pdfrwt>
<pdfrwt beam="1">  1       -4 0.37381309E-02 0.20019945E+02</pdfrwt>
<totfact> 0.12513624E+06</totfact>
</mgrwt>
</event>
<event>
 5    1  0.1154861E-006  0.2000205E+02  0.7818608E-02  0.1745287E+00
          4   -1    0    0  501    0  0.00000000000E+00  0.00000000000E+00  0.18724389096E+02  0.18778156113E+02  0.14200000000E+01 0.  1.
         -4   -1    0    0    0  501 -0.00000000000E+00 -0.00000000000E+00 -0.51846899345E+01  0.53756310994E+01  0.14200000000E+01 0. -1.
       1023    2    1    2    0    0  0.00000000000E+00  0.00000000000E+00  0.13539699161E+02  0.24153787212E+02  0.20002049478E+02 0.  0.
        -11    1    3    3    0    0 -0.71415185413E+01 -0.70011539035E+01  0.68365670616E+01  0.12114292902E+02  0.51100000000E-03 0. -1.
         11    1    3    3    0    0  0.71415185413E+01  0.70011539035E+01  0.67031320996E+01  0.12039494311E+02  0.51100000000E-03 0.  1.
<mgrwt>
<rscale>  0 0.20002049E+02</rscale>
<asrwt>0</asrwt>
<pdfrwt beam="1">  1        4 0.28994990E-02 0.20002049E+02</pdfrwt>
<pdfrwt beam="2">  1       -4 0.81646831E-03 0.20002049E+02</pdfrwt>
<totfact> 0.12770427E+06</totfact>
</mgrwt>
</event>
<event>
 5    1  0.1154861E-006  0.2000324E+02  0.7818608E-02  0.1745264E+00
         -4   -1    0    0    0  501 -0.00000000000E+00  0.00000000000E+00  0.27826133464E+02  0.27862342033E+02  0.14200000000E+01 0. -1.
          4   -1    0    0  501    0  0.00000000000E+00 -0.00000000000E+00 -0.34145221912E+01  0.36980213350E+01  0.14200000000E+01 0.  1.
       1023    2    1    2    0    0  0.00000000000E+00  0.00000000000E+00  0.24411611273E+02  0.31560363368E+02  0.20003244011E+02 0.  0.
        -11    1    3    3    0    0  0.79880339481E+01  0.60180442410E+01  0.12074750268E+02  0.15678811726E+02  0.51100000000E-03 0. -1.
         11    1    3    3    0    0 -0.79880339481E+01 -0.60180442410E+01  0.12336861005E+02  0.15881551642E+02  0.51100000000E-03 0.  1.
<mgrwt>
<rscale>  0 0.20003244E+02</rscale>
<asrwt>0</asrwt>
<pdfrwt beam="2">  1        4 0.54990399E-03 0.20003244E+02</pdfrwt>
<pdfrwt beam="1">  1       -4 0.43055366E-02 0.20003244E+02</pdfrwt>
<totfact> 0.12370903E+06</totfact>
</mgrwt>
</event>
<event>
 5    1  0.1158324E-006  0.2000060E+02  0.7818608E-02  0.1745316E+00
          4   -1    0    0  501    0  0.00000000000E+00  0.00000000000E+00  0.30277953723E+02  0.30311233589E+02  0.14200000000E+01 0.  1.
         -4   -1    0    0    0  501 -0.00000000000E+00 -0.00000000000E+00 -0.31134857509E+01  0.34220160025E+01  0.14200000000E+01 0. -1.
       1023    2    1    2    0    0  0.00000000000E+00  0.00000000000E+00  0.27164467972E+02  0.33733249591E+02  0.20000595185E+02 0.  0.
        -11    1    3    3    0    0 -0.53015595822E+01 -0.84793496500E+01  0.13570648104E+02  0.16857295000E+02  0.51100000000E-03 0. -1.
         11    1    3    3    0    0  0.53015595822E+01  0.84793496500E+01  0.13593819868E+02  0.16875954591E+02  0.51100000000E-03 0.  1.
<mgrwt>
<rscale>  0 0.20000595E+02</rscale>
<asrwt>0</asrwt>
<pdfrwt beam="1">  1        4 0.46844397E-02 0.20000595E+02</pdfrwt>
<pdfrwt beam="2">  1       -4 0.50529091E-03 0.20000595E+02</pdfrwt>
<totfact> 0.12264126E+06</totfact>
</mgrwt>
</event>
<event>
 5    1  0.1187083E-006  0.2000251E+02  0.7818608E-02  0.1745278E+00
          4   -1    0    0  501    0  0.00000000000E+00  0.00000000000E+00  0.47029021100E+01  0.49126050377E+01  0.14200000000E+01 0. -1.
         -4   -1    0    0    0  501 -0.00000000000E+00 -0.00000000000E+00 -0.20570248043E+02  0.20619202325E+02  0.14200000000E+01 0.  1.
       1023    2    1    2    0    0  0.00000000000E+00  0.00000000000E+00 -0.15867345933E+02  0.25531807363E+02  0.20002512849E+02 0.  0.
        -11    1    3    3    0    0 -0.44125618927E+00 -0.99904884691E+01 -0.77506356916E+01  0.12652150835E+02  0.51100000000E-03 0.  1.
         11    1    3    3    0    0  0.44125618927E+00  0.99904884691E+01 -0.81167102411E+01  0.12879656528E+02  0.51100000000E-03 0. -1.
<mgrwt>
<rscale>  0 0.20002513E+02</rscale>
<asrwt>0</asrwt>
<pdfrwt beam="1">  1        4 0.74342012E-03 0.20002513E+02</pdfrwt>
<pdfrwt beam="2">  1       -4 0.31845502E-02 0.20002513E+02</pdfrwt>
<totfact> 0.12692777E+06</totfact>
</mgrwt>
</event>
<event>
 5    1  0.1154861E-006  0.2000152E+02  0.7818608E-02  0.1745298E+00
          4   -1    0    0  501    0  0.00000000000E+00  0.00000000000E+00  0.37671029891E+00  0.14691190045E+01  0.14200000000E+01 0.  1.
         -4   -1    0    0    0  501 -0.00000000000E+00 -0.00000000000E+00 -0.10726898944E+03  0.10727838783E+03  0.14200000000E+01 0. -1.
       1023    2    1    2    0    0  0.00000000000E+00  0.00000000000E+00 -0.10689227914E+03  0.10874750684E+03  0.20001522512E+02 0.  0.
        -11    1    3    3    0    0  0.99988120300E+01  0.19113287716E+00 -0.53715346383E+02  0.54638367574E+02  0.51100000000E-03 0.  1.
         11    1    3    3    0    0 -0.99988120300E+01 -0.19113287716E+00 -0.53176932759E+02  0.54109139262E+02  0.51100000000E-03 0. -1.
<mgrwt>
<rscale>  0 0.20001523E+02</rscale>
<asrwt>0</asrwt>
<pdfrwt beam="1">  1        4 0.14270991E-03 0.20001523E+02</pdfrwt>
<pdfrwt beam="2">  1       -4 0.16587666E-01 0.20001523E+02</pdfrwt>
<totfact> 0.95574817E+05</totfact>
</mgrwt>
</event>
<event>
 5    1  0.1154861E-006  0.2000852E+02  0.7818608E-02  0.1745159E+00
          4   -1    0    0  501    0  0.00000000000E+00  0.00000000000E+00  0.16783680812E+02  0.16843643953E+02  0.14200000000E+01 0.  1.
         -4   -1    0    0    0  501 -0.00000000000E+00 -0.00000000000E+00 -0.58069503629E+01  0.59780492234E+01  0.14200000000E+01 0. -1.
       1023    2    1    2    0    0  0.00000000000E+00  0.00000000000E+00  0.10976730449E+02  0.22821693176E+02  0.20008524885E+02 0.  0.
        -11    1    3    3    0    0 -0.70125000478E+01 -0.71322091997E+01  0.52554434852E+01  0.11298816375E+02  0.51100000000E-03 0.  1.
         11    1    3    3    0    0  0.70125000478E+01  0.71322091997E+01  0.57212869642E+01  0.11522876801E+02  0.51100000000E-03 0. -1.
<mgrwt>
<rscale>  0 0.20008525E+02</rscale>
<asrwt>0</asrwt>
<pdfrwt beam="1">  1        4 0.25998787E-02 0.20008525E+02</pdfrwt>
<pdfrwt beam="2">  1       -4 0.91115099E-03 0.20008525E+02</pdfrwt>
<totfact> 0.12837637E+06</totfact>
</mgrwt>
</event>
<event>
 5    1  0.1154861E-006  0.2000028E+02  0.7818608E-02  0.1745322E+00
         -4   -1    0    0    0  501 -0.00000000000E+00  0.00000000000E+00  0.35832711961E+01  0.38543783500E+01  0.14200000000E+01 0. -1.
          4   -1    0    0  501    0  0.00000000000E+00 -0.00000000000E+00 -0.26600246905E+02  0.26638121845E+02  0.14200000000E+01 0.  1.
       1023    2    1    2    0    0  0.00000000000E+00  0.00000000000E+00 -0.23016975709E+02  0.30492500195E+02  0.20000284931E+02 0.  0.
        -11    1    3    3    0    0  0.43333860740E+01  0.90124098659E+01 -0.11558652045E+02  0.15284116063E+02  0.51100000000E-03 0. -1.
         11    1    3    3    0    0 -0.43333860740E+01 -0.90124098659E+01 -0.11458323664E+02  0.15208384132E+02  0.51100000000E-03 0.  1.
<mgrwt>
<rscale>  0 0.20000285E+02</rscale>
<asrwt>0</asrwt>
<pdfrwt beam="2">  1        4 0.41161134E-02 0.20000285E+02</pdfrwt>
<pdfrwt beam="1">  1       -4 0.57504036E-03 0.20000285E+02</pdfrwt>
<totfact> 0.12429736E+06</totfact>
</mgrwt>
</event>
<event>
 5    1  0.1154861E-006  0.2000028E+02  0.7818608E-02  0.1745323E+00
         -4   -1    0    0    0  501 -0.00000000000E+00  0.00000000000E+00  0.26981944048E+02  0.27019283940E+02  0.14200000000E+01 0.  1.
          4   -1    0    0  501    0  0.00000000000E+00 -0.00000000000E+00 -0.35287904561E+01  0.38037826020E+01  0.14200000000E+01 0. -1.
       1023    2    1    2    0    0  0.00000000000E+00  0.00000000000E+00  0.23453153592E+02  0.30823066542E+02  0.20000275439E+02 0.  0.
        -11    1    3    3    0    0 -0.89667753182E+01  0.44271542001E+01  0.11725842620E+02  0.15410974639E+02  0.51100000000E-03 0.  1.
         11    1    3    3    0    0  0.89667753182E+01 -0.44271542001E+01  0.11727310972E+02  0.15412091902E+02  0.51100000000E-03 0. -1.
<mgrwt>
<rscale>  0 0.20000275E+02</rscale>
<asrwt>0</asrwt>
<pdfrwt beam="2">  1        4 0.56691636E-03 0.20000275E+02</pdfrwt>
<pdfrwt beam="1">  1       -4 0.41750940E-02 0.20000275E+02</pdfrwt>
<totfact> 0.12412625E+06</totfact>
</mgrwt>
</event>
<event>
 5    1  0.1154861E-006  0.2000332E+02  0.7818608E-02  0.1745262E+00
          4   -1    0    0  501    0  0.00000000000E+00  0.00000000000E+00  0.12904187610E+01  0.19187445319E+01  0.14200000000E+01 0.  1.
         -4   -1    0    0    0  501 -0.00000000000E+00 -0.00000000000E+00 -0.61704121708E+02  0.61720458810E+02  0.14200000000E+01 0. -1.
       1023    2    1    2    0    0  0.00000000000E+00  0.00000000000E+00 -0.60413702947E+02  0.63639203342E+02  0.20003317181E+02 0.  0.
        -11    1    3    3    0    0  0.91963030067E+01 -0.39316451677E+01 -0.30391033850E+02  0.31994448916E+02  0.51100000000E-03 0.  1.
         11    1    3    3    0    0 -0.91963030067E+01  0.39316451677E+01 -0.30022669097E+02  0.31644754426E+02  0.51100000000E-03 0. -1.
<mgrwt>
<rscale>  0 0.20003317E+02</rscale>
<asrwt>0</asrwt>
<pdfrwt beam="1">  1        4 0.24811546E-03 0.20003317E+02</pdfrwt>
<pdfrwt beam="2">  1       -4 0.95425294E-02 0.20003317E+02</pdfrwt>
<totfact> 0.10977650E+06</totfact>
</mgrwt>
</event>
<event>
 5    1  0.1231364E-006  0.2000096E+02  0.7818608E-02  0.1745309E+00
          4   -1    0    0  501    0  0.00000000000E+00  0.00000000000E+00  0.91960074491E+01  0.93049961313E+01  0.14200000000E+01 0. -1.
         -4   -1    0    0    0  501 -0.00000000000E+00 -0.00000000000E+00 -0.10654893813E+02  0.10749100528E+02  0.14200000000E+01 0.  1.
       1023    2    1    2    0    0  0.00000000000E+00  0.00000000000E+00 -0.14588863641E+01  0.20054096660E+02  0.20000961062E+02 0.  0.
        -11    1    3    3    0    0 -0.29420591439E+01 -0.95578192946E+01 -0.77415893341E+00  0.10030301291E+02  0.51100000000E-03 0.  1.
         11    1    3    3    0    0  0.29420591439E+01  0.95578192946E+01 -0.68472743064E+00  0.10023795369E+02  0.51100000000E-03 0. -1.
<mgrwt>
<rscale>  0 0.20000961E+02</rscale>
<asrwt>0</asrwt>
<pdfrwt beam="1">  1        4 0.14304008E-02 0.20000961E+02</pdfrwt>
<pdfrwt beam="2">  1       -4 0.16548448E-02 0.20000961E+02</pdfrwt>
<totfact> 0.13009558E+06</totfact>
</mgrwt>
</event>
<event>
 5    1  0.1154861E-006  0.2000029E+02  0.7818608E-02  0.1745322E+00
          4   -1    0    0  501    0  0.00000000000E+00  0.00000000000E+00  0.40289635661E+00  0.14760506340E+01  0.14200000000E+01 0. -1.
         -4   -1    0    0    0  501 -0.00000000000E+00 -0.00000000000E+00 -0.10536497842E+03  0.10537454663E+03  0.14200000000E+01 0.  1.
       1023    2    1    2    0    0  0.00000000000E+00  0.00000000000E+00 -0.10496208206E+03  0.10685059726E+03  0.20000286612E+02 0.  0.
        -11    1    3    3    0    0 -0.98878405645E+01  0.14943594938E+01 -0.52583045977E+02  0.53525500706E+02  0.51100000000E-03 0.  1.
         11    1    3    3    0    0  0.98878405645E+01 -0.14943594938E+01 -0.52379036086E+02  0.53325096558E+02  0.51100000000E-03 0. -1.
<mgrwt>
<rscale>  0 0.20000287E+02</rscale>
<asrwt>0</asrwt>
<pdfrwt beam="1">  1        4 0.14527048E-03 0.20000287E+02</pdfrwt>
<pdfrwt beam="2">  1       -4 0.16293274E-01 0.20000287E+02</pdfrwt>
<totfact> 0.96100921E+05</totfact>
</mgrwt>
</event>
<event>
 5    1  0.1154861E-006  0.2000047E+02  0.7818608E-02  0.1745319E+00
         -4   -1    0    0    0  501 -0.00000000000E+00  0.00000000000E+00  0.10360944310E+03  0.10361917342E+03  0.14200000000E+01 0.  1.
          4   -1    0    0  501    0  0.00000000000E+00 -0.00000000000E+00 -0.42778000841E+00  0.14830359859E+01  0.14200000000E+01 0. -1.
       1023    2    1    2    0    0  0.00000000000E+00  0.00000000000E+00  0.10318166309E+03  0.10510220940E+03  0.20000470567E+02 0.  0.
        -11    1    3    3    0    0 -0.74684939591E+01  0.66501118374E+01  0.51337936390E+02  0.52302830732E+02  0.51100000000E-03 0.  1.
         11    1    3    3    0    0  0.74684939591E+01 -0.66501118374E+01  0.51843726700E+02  0.52799378669E+02  0.51100000000E-03 0. -1.
<mgrwt>
<rscale>  0 0.20000471E+02</rscale>
<asrwt>0</asrwt>
<pdfrwt beam="2">  1        4 0.14773442E-03 0.20000471E+02</pdfrwt>
<pdfrwt beam="1">  1       -4 0.16021827E-01 0.20000471E+02</pdfrwt>
<totfact> 0.96578689E+05</totfact>
</mgrwt>
</event>
<event>
 5    1  0.1154861E-006  0.2000042E+02  0.7818608E-02  0.1745320E+00
         -4   -1    0    0    0  501 -0.00000000000E+00  0.00000000000E+00  0.66824790348E+01  0.68316854473E+01  0.14200000000E+01 0.  1.
          4   -1    0    0  501    0  0.00000000000E+00 -0.00000000000E+00 -0.14615913813E+02  0.14684731410E+02  0.14200000000E+01 0. -1.
       1023    2    1    2    0    0  0.00000000000E+00  0.00000000000E+00 -0.79334347778E+01  0.21516416857E+02  0.20000420170E+02 0.  0.
        -11    1    3    3    0    0  0.91738091139E+01  0.39805932003E+01 -0.39479108388E+01  0.10751274163E+02  0.51100000000E-03 0. -1.
         11    1    3    3    0    0 -0.91738091139E+01 -0.39805932003E+01 -0.39855239390E+01  0.10765142694E+02  0.51100000000E-03 0.  1.
<mgrwt>
<rscale>  0 0.20000420E+02</rscale>
<asrwt>0</asrwt>
<pdfrwt beam="2">  1        4 0.22653732E-02 0.20000420E+02</pdfrwt>
<pdfrwt beam="1">  1       -4 0.10448448E-02 0.20000420E+02</pdfrwt>
<totfact> 0.12923851E+06</totfact>
</mgrwt>
</event>
<event>
 5    1  0.1154861E-006  0.2001029E+02  0.7818608E-02  0.1745124E+00
          4   -1    0    0  501    0  0.00000000000E+00  0.00000000000E+00  0.45042834953E+02  0.45065212533E+02  0.14200000000E+01 0. -1.
         -4   -1    0    0    0  501 -0.00000000000E+00 -0.00000000000E+00 -0.19702091519E+01  0.24286053821E+01  0.14200000000E+01 0.  1.
       1023    2    1    2    0    0  0.00000000000E+00  0.00000000000E+00  0.43072625801E+02  0.47493817915E+02  0.20010288521E+02 0.  0.
        -11    1    3    3    0    0  0.58495209112E+01 -0.81170148498E+01  0.21558381519E+02  0.23766923212E+02  0.51100000000E-03 0.  1.
         11    1    3    3    0    0 -0.58495209112E+01  0.81170148498E+01  0.21514244282E+02  0.23726894703E+02  0.51100000000E-03 0. -1.
<mgrwt>
<rscale>  0 0.20010289E+02</rscale>
<asrwt>0</asrwt>
<pdfrwt beam="1">  1        4 0.69666492E-02 0.20010289E+02</pdfrwt>
<pdfrwt beam="2">  1       -4 0.34009172E-03 0.20010289E+02</pdfrwt>
<totfact> 0.11614860E+06</totfact>
</mgrwt>
</event>
<event>
 5    1  0.1154861E-006  0.2000109E+02  0.7818608E-02  0.1745306E+00
         -4   -1    0    0    0  501 -0.00000000000E+00  0.00000000000E+00  0.74994612462E+02  0.75008054890E+02  0.14200000000E+01 0.  1.
          4   -1    0    0  501    0  0.00000000000E+00 -0.00000000000E+00 -0.93807840155E+00  0.17018786935E+01  0.14200000000E+01 0. -1.
       1023    2    1    2    0    0  0.00000000000E+00  0.00000000000E+00  0.74056534060E+02  0.76709933583E+02  0.20001091802E+02 0.  0.
        -11    1    3    3    0    0 -0.99821434405E+01 -0.59939160300E+00  0.36675501893E+02  0.38014403814E+02  0.51100000000E-03 0.  1.
         11    1    3    3    0    0  0.99821434405E+01  0.59939160300E+00  0.37381032168E+02  0.38695529770E+02  0.51100000000E-03 0. -1.
<mgrwt>
<rscale>  0 0.20001092E+02</rscale>
<asrwt>0</asrwt>
<pdfrwt beam="2">  1        4 0.20410753E-03 0.20001092E+02</pdfrwt>
<pdfrwt beam="1">  1       -4 0.11597428E-01 0.20001092E+02</pdfrwt>
<totfact> 0.10518887E+06</totfact>
</mgrwt>
</event>
<event>
 5    1  0.1169665E-006  0.2000244E+02  0.7818608E-02  0.1745280E+00
          4   -1    0    0  501    0  0.00000000000E+00  0.00000000000E+00  0.86409321414E+01  0.87568320911E+01  0.14200000000E+01 0.  1.
         -4   -1    0    0    0  501 -0.00000000000E+00 -0.00000000000E+00 -0.11338053896E+02  0.11426629694E+02  0.14200000000E+01 0. -1.
       1023    2    1    2    0    0  0.00000000000E+00  0.00000000000E+00 -0.26971217549E+01  0.20183461785E+02  0.20002441447E+02 0.  0.
        -11    1    3    3    0    0 -0.19276250158E+01  0.98134449706E+01 -0.14197350977E+01  0.10101241924E+02  0.51100000000E-03 0. -1.
         11    1    3    3    0    0  0.19276250158E+01 -0.98134449706E+01 -0.12773866572E+01  0.10082219861E+02  0.51100000000E-03 0.  1.
<mgrwt>
<rscale>  0 0.20002441E+02</rscale>
<asrwt>0</asrwt>
<pdfrwt beam="1">  1        4 0.13451031E-02 0.20002441E+02</pdfrwt>
<pdfrwt beam="2">  1       -4 0.17600449E-02 0.20002441E+02</pdfrwt>
<totfact> 0.12999890E+06</totfact>
</mgrwt>
</event>
<event>
 5    1  0.1183980E-006  0.2000110E+02  0.7818608E-02  0.1745306E+00
          4   -1    0    0  501    0  0.00000000000E+00  0.00000000000E+00  0.20534362712E+01  0.24965977890E+01  0.14200000000E+01 0. -1.
         -4   -1    0    0    0  501 -0.00000000000E+00 -0.00000000000E+00 -0.43504658289E+02  0.43527826649E+02  0.14200000000E+01 0.  1.
       1023    2    1    2    0    0  0.00000000000E+00  0.00000000000E+00 -0.41451222017E+02  0.46024424438E+02  0.20001095923E+02 0.  0.
        -11    1    3    3    0    0 -0.33108211062E+01  0.94364690459E+01 -0.20611137076E+02  0.22909112953E+02  0.51100000000E-03 0.  1.
         11    1    3    3    0    0  0.33108211062E+01 -0.94364690459E+01 -0.20840084941E+02  0.23115311485E+02  0.51100000000E-03 0. -1.
<mgrwt>
<rscale>  0 0.20001096E+02</rscale>
<asrwt>0</asrwt>
<pdfrwt beam="1">  1        4 0.35178483E-03 0.20001096E+02</pdfrwt>
<pdfrwt beam="2">  1       -4 0.67288953E-02 0.20001096E+02</pdfrwt>
<totfact> 0.11689453E+06</totfact>
</mgrwt>
</event>
<event>
 5    1  0.1154861E-006  0.2000029E+02  0.7818608E-02  0.1745322E+00
         -4   -1    0    0    0  501 -0.00000000000E+00  0.00000000000E+00  0.14387968267E+02  0.14457870896E+02  0.14200000000E+01 0. -1.
          4   -1    0    0  501    0  0.00000000000E+00 -0.00000000000E+00 -0.67900812826E+01  0.69369736791E+01  0.14200000000E+01 0.  1.
       1023    2    1    2    0    0  0.00000000000E+00  0.00000000000E+00  0.75978869840E+01  0.21394844575E+02  0.20000287192E+02 0.  0.
        -11    1    3    3    0    0 -0.99270693266E+01 -0.12067166062E+01  0.38001616417E+01  0.10697854885E+02  0.51100000000E-03 0.  1.
         11    1    3    3    0    0  0.99270693266E+01  0.12067166062E+01  0.37977253423E+01  0.10696989690E+02  0.51100000000E-03 0. -1.
<mgrwt>
<rscale>  0 0.20000287E+02</rscale>
<asrwt>0</asrwt>
<pdfrwt beam="2">  1        4 0.10613044E-02 0.20000287E+02</pdfrwt>
<pdfrwt beam="1">  1       -4 0.22302101E-02 0.20000287E+02</pdfrwt>
<totfact> 0.12931145E+06</totfact>
</mgrwt>
</event>
<event>
 5    1  0.1154861E-006  0.2000467E+02  0.7818608E-02  0.1745235E+00
          4   -1    0    0  501    0  0.00000000000E+00  0.00000000000E+00  0.10289000611E+02  0.10386526540E+02  0.14200000000E+01 0. -1.
         -4   -1    0    0    0  501 -0.00000000000E+00 -0.00000000000E+00 -0.95273987498E+01  0.96326386280E+01  0.14200000000E+01 0.  1.
       1023    2    1    2    0    0  0.00000000000E+00  0.00000000000E+00  0.76160186128E+00  0.20019165168E+02  0.20004672870E+02 0.  0.
        -11    1    3    3    0    0 -0.98761328189E+01 -0.15796806613E+01  0.49639847780E+00  0.10013980335E+02  0.51100000000E-03 0. -1.
         11    1    3    3    0    0  0.98761328189E+01  0.15796806613E+01  0.26520338348E+00  0.10005184833E+02  0.51100000000E-03 0.  1.
<mgrwt>
<rscale>  0 0.20004673E+02</rscale>
<asrwt>0</asrwt>
<pdfrwt beam="1">  1        4 0.15985205E-02 0.20004673E+02</pdfrwt>
<pdfrwt beam="2">  1       -4 0.14813510E-02 0.20004673E+02</pdfrwt>
<totfact> 0.13006701E+06</totfact>
</mgrwt>
</event>
<event>
 4    1  0.1154861E-006  0.2016713E+02  0.7818608E-02  0.1742025E+00
         -4   -1    0    0    0  501 -0.00000000000E+00  0.00000000000E+00  0.46146899239E+02  0.46168741692E+02  0.14200000000E+01 0.  1.
          4   -1    0    0  501    0  0.00000000000E+00 -0.00000000000E+00 -0.19498046728E+01  0.24120817279E+01  0.14200000000E+01 0. -1.
        -11    1    1    2    0    0 -0.65934113419E+01 -0.75822889123E+01  0.24134227236E+02  0.26142400479E+02  0.51100000000E-03 0.  1.
         11    1    1    2    0    0  0.65934113419E+01  0.75822889123E+01  0.20062867331E+02  0.22438422941E+02  0.51100000000E-03 0. -1.
<mgrwt>
<rscale>  0 0.20167133E+02</rscale>
<asrwt>0</asrwt>
<pdfrwt beam="2">  1        4 0.33720995E-03 0.20167133E+02</pdfrwt>
<pdfrwt beam="1">  1       -4 0.71367620E-02 0.20167133E+02</pdfrwt>
<totfact> 0.11387215E+06</totfact>
</mgrwt>
</event>
<event>
 5    1  0.1154861E-006  0.2000030E+02  0.7818608E-02  0.1745322E+00
          4   -1    0    0  501    0  0.00000000000E+00  0.00000000000E+00  0.15565215914E+01  0.21069312909E+01  0.14200000000E+01 0.  1.
         -4   -1    0    0    0  501 -0.00000000000E+00 -0.00000000000E+00 -0.54033795459E+02  0.54052450932E+02  0.14200000000E+01 0. -1.
       1023    2    1    2    0    0  0.00000000000E+00  0.00000000000E+00 -0.52477273868E+02  0.56159382223E+02  0.20000298473E+02 0.  0.
        -11    1    3    3    0    0  0.99776087707E+01 -0.67077239189E+00 -0.26184471536E+02  0.28029077086E+02  0.51100000000E-03 0. -1.
         11    1    3    3    0    0 -0.99776087707E+01  0.67077239189E+00 -0.26292802332E+02  0.28130305137E+02  0.51100000000E-03 0.  1.
<mgrwt>
<rscale>  0 0.20000298E+02</rscale>
<asrwt>0</asrwt>
<pdfrwt beam="1">  1        4 0.28323915E-03 0.20000298E+02</pdfrwt>
<pdfrwt beam="2">  1       -4 0.83566646E-02 0.20000298E+02</pdfrwt>
<totfact> 0.11268324E+06</totfact>
</mgrwt>
</event>
<event>
 5    1  0.1154861E-006  0.2000047E+02  0.7818608E-02  0.1745319E+00
         -4   -1    0    0    0  501 -0.00000000000E+00  0.00000000000E+00  0.14202404467E+02  0.14273215918E+02  0.14200000000E+01 0. -1.
          4   -1    0    0  501    0  0.00000000000E+00 -0.00000000000E+00 -0.68803879220E+01  0.70253923703E+01  0.14200000000E+01 0.  1.
       1023    2    1    2    0    0  0.00000000000E+00  0.00000000000E+00  0.73220165454E+01  0.21298608289E+02  0.20000469713E+02 0.  0.
        -11    1    3    3    0    0 -0.98640845559E+01 -0.16445397036E+01  0.36560174920E+01  0.10647588418E+02  0.51100000000E-03 0. -1.
         11    1    3    3    0    0  0.98640845559E+01  0.16445397036E+01  0.36659990533E+01  0.10651019871E+02  0.51100000000E-03 0.  1.
<mgrwt>
<rscale>  0 0.20000470E+02</rscale>
<asrwt>0</asrwt>
<pdfrwt beam="2">  1        4 0.10751224E-02 0.20000470E+02</pdfrwt>
<pdfrwt beam="1">  1       -4 0.22015865E-02 0.20000470E+02</pdfrwt>
<totfact> 0.12936551E+06</totfact>
</mgrwt>
</event>
<event>
 5    1  0.1154861E-006  0.2000053E+02  0.7818608E-02  0.1745317E+00
         -4   -1    0    0    0  501 -0.00000000000E+00  0.00000000000E+00  0.68366366232E+00  0.15760063462E+01  0.14200000000E+01 0. -1.
          4   -1    0    0  501    0  0.00000000000E+00 -0.00000000000E+00 -0.87612865747E+02  0.87624372434E+02  0.14200000000E+01 0.  1.
       1023    2    1    2    0    0  0.00000000000E+00  0.00000000000E+00 -0.86929202085E+02  0.89200378780E+02  0.20000534978E+02 0.  0.
        -11    1    3    3    0    0 -0.20867658290E+01  0.97801155334E+01 -0.43420423895E+02  0.44557137059E+02  0.51100000000E-03 0.  1.
         11    1    3    3    0    0  0.20867658290E+01 -0.97801155334E+01 -0.43508778190E+02  0.44643241721E+02  0.51100000000E-03 0. -1.
<mgrwt>
<rscale>  0 0.20000535E+02</rscale>
<asrwt>0</asrwt>
<pdfrwt beam="2">  1        4 0.13548424E-01 0.20000535E+02</pdfrwt>
<pdfrwt beam="1">  1       -4 0.17470597E-03 0.20000535E+02</pdfrwt>
<totfact> 0.10119590E+06</totfact>
</mgrwt>
</event>
<event>
 4    1  0.1154861E-006  0.2005874E+02  0.7818608E-02  0.1744162E+00
         -4   -1    0    0    0  501 -0.00000000000E+00  0.00000000000E+00  0.20126213414E+02  0.20176245101E+02  0.14200000000E+01 0. -1.
          4   -1    0    0  501    0  0.00000000000E+00 -0.00000000000E+00 -0.48394986369E+01  0.50435252608E+01  0.14200000000E+01 0.  1.
        -11    1    1    2    0    0 -0.15145324371E+01  0.99072474807E+01  0.71713593186E+01  0.12323788212E+02  0.51100000000E-03 0.  1.
         11    1    1    2    0    0  0.15145324371E+01 -0.99072474807E+01  0.81153554584E+01  0.12895982150E+02  0.51100000000E-03 0. -1.
<mgrwt>
<rscale>  0 0.20058743E+02</rscale>
<asrwt>0</asrwt>
<pdfrwt beam="2">  1        4 0.76408121E-03 0.20058743E+02</pdfrwt>
<pdfrwt beam="1">  1       -4 0.31158834E-02 0.20058743E+02</pdfrwt>
<totfact> 0.12637624E+06</totfact>
</mgrwt>
</event>
<event>
 5    1  0.1154861E-006  0.2000022E+02  0.7818608E-02  0.1745324E+00
         -4   -1    0    0    0  501 -0.00000000000E+00  0.00000000000E+00  0.66719949512E+01  0.68214306878E+01  0.14200000000E+01 0.  1.
          4   -1    0    0  501    0  0.00000000000E+00 -0.00000000000E+00 -0.14638178748E+02  0.14706892162E+02  0.14200000000E+01 0. -1.
       1023    2    1    2    0    0  0.00000000000E+00  0.00000000000E+00 -0.79661837972E+01  0.21528322850E+02  0.20000215010E+02 0.  0.
        -11    1    3    3    0    0 -0.85772937823E+01 -0.51412169384E+01 -0.39920728441E+01  0.10767484669E+02  0.51100000000E-03 0.  1.
         11    1    3    3    0    0  0.85772937823E+01  0.51412169384E+01 -0.39741109531E+01  0.10760838181E+02  0.51100000000E-03 0. -1.
<mgrwt>
<rscale>  0 0.20000215E+02</rscale>
<asrwt>0</asrwt>
<pdfrwt beam="2">  1        4 0.22688082E-02 0.20000215E+02</pdfrwt>
<pdfrwt beam="1">  1       -4 0.10432415E-02 0.20000215E+02</pdfrwt>
<totfact> 0.12923425E+06</totfact>
</mgrwt>
</event>
<event>
 5    1  0.1170367E-006  0.2000362E+02  0.7818608E-02  0.1745256E+00
         -4   -1    0    0    0  501 -0.00000000000E+00  0.00000000000E+00  0.32735057173E+01  0.35682264056E+01  0.14200000000E+01 0.  1.
          4   -1    0    0  501    0  0.00000000000E+00 -0.00000000000E+00 -0.28930060249E+02  0.28964888849E+02  0.14200000000E+01 0.  1.
       1023    2    1    2    0    0  0.00000000000E+00  0.00000000000E+00 -0.25656554532E+02  0.32533115254E+02  0.20003619615E+02 0.  0.
        -11    1    3    3    0    0  0.36810064362E+00  0.99933675174E+01 -0.13125090432E+02  0.16500633064E+02  0.51100000000E-03 0.  1.
         11    1    3    3    0    0 -0.36810064362E+00 -0.99933675174E+01 -0.12531464100E+02  0.16032482190E+02  0.51100000000E-03 0. -1.
<mgrwt>
<rscale>  0 0.20003620E+02</rscale>
<asrwt>0</asrwt>
<pdfrwt beam="2">  1        4 0.44761283E-02 0.20003620E+02</pdfrwt>
<pdfrwt beam="1">  1       -4 0.52896623E-03 0.20003620E+02</pdfrwt>
<totfact> 0.12320798E+06</totfact>
</mgrwt>
</event>
<event>
 5    1  0.1154861E-006  0.2000006E+02  0.7818608E-02  0.1745327E+00
         -4   -1    0    0    0  501 -0.00000000000E+00  0.00000000000E+00  0.18379930246E+02  0.18434701946E+02  0.14200000000E+01 0. -1.
          4   -1    0    0  501    0  0.00000000000E+00 -0.00000000000E+00 -0.52840060524E+01  0.54714824281E+01  0.14200000000E+01 0.  1.
       1023    2    1    2    0    0  0.00000000000E+00  0.00000000000E+00  0.13095924194E+02  0.23906184374E+02  0.20000060521E+02 0.  0.
        -11    1    3    3    0    0  0.15371431355E+01 -0.98811815536E+01  0.65397641830E+01  0.11948601330E+02  0.51100000000E-03 0. -1.
         11    1    3    3    0    0 -0.15371431355E+01  0.98811815536E+01  0.65561600105E+01  0.11957583044E+02  0.51100000000E-03 0.  1.
<mgrwt>
<rscale>  0 0.20000061E+02</rscale>
<asrwt>0</asrwt>
<pdfrwt beam="2">  1        4 0.83155848E-03 0.20000061E+02</pdfrwt>
<pdfrwt beam="1">  1       -4 0.28463160E-02 0.20000061E+02</pdfrwt>
<totfact> 0.12786977E+06</totfact>
</mgrwt>
</event>
<event>
 5    1  0.1154861E-006  0.2000988E+02  0.7818608E-02  0.1745132E+00
          4   -1    0    0  501    0  0.00000000000E+00  0.00000000000E+00  0.43334913599E+02  0.43358172662E+02  0.14200000000E+01 0. -1.
         -4   -1    0    0    0  501 -0.00000000000E+00 -0.00000000000E+00 -0.20654305513E+01  0.25064722943E+01  0.14200000000E+01 0.  1.
       1023    2    1    2    0    0  0.00000000000E+00  0.00000000000E+00  0.41269483048E+02  0.45864644957E+02  0.20009883208E+02 0.  0.
        -11    1    3    3    0    0 -0.58640023138E+01  0.81045670160E+01  0.20248969629E+02  0.22585200928E+02  0.51100000000E-03 0.  1.
         11    1    3    3    0    0  0.58640023138E+01 -0.81045670160E+01  0.21020513418E+02  0.23279444029E+02  0.51100000000E-03 0. -1.
<mgrwt>
<rscale>  0 0.20009883E+02</rscale>
<asrwt>0</asrwt>
<pdfrwt beam="1">  1        4 0.67026250E-02 0.20009883E+02</pdfrwt>
<pdfrwt beam="2">  1       -4 0.35347401E-03 0.20009883E+02</pdfrwt>
<totfact> 0.11686075E+06</totfact>
</mgrwt>
</event>
<event>
 5    1  0.1154861E-006  0.2000047E+02  0.7818608E-02  0.1745319E+00
          4   -1    0    0  501    0  0.00000000000E+00  0.00000000000E+00  0.83854401444E+02  0.83866423803E+02  0.14200000000E+01 0.  1.
         -4   -1    0    0    0  501 -0.00000000000E+00 -0.00000000000E+00 -0.75342407167E+00  0.16074973816E+01  0.14200000000E+01 0. -1.
       1023    2    1    2    0    0  0.00000000000E+00  0.00000000000E+00  0.83100977373E+02  0.85473921185E+02  0.20000469056E+02 0.  0.
        -11    1    3    3    0    0  0.33306631668E+01  0.94292742900E+01  0.41496501362E+02  0.42684472075E+02  0.51100000000E-03 0.  1.
         11    1    3    3    0    0 -0.33306631668E+01 -0.94292742900E+01  0.41604476011E+02  0.42789449110E+02  0.51100000000E-03 0. -1.
<mgrwt>
<rscale>  0 0.20000469E+02</rscale>
<asrwt>0</asrwt>
<pdfrwt beam="1">  1        4 0.12967303E-01 0.20000469E+02</pdfrwt>
<pdfrwt beam="2">  1       -4 0.18253410E-03 0.20000469E+02</pdfrwt>
<totfact> 0.10235296E+06</totfact>
</mgrwt>
</event>
<event>
 5    1  0.1154861E-006  0.2000370E+02  0.7818608E-02  0.1745255E+00
          4   -1    0    0  501    0  0.00000000000E+00  0.00000000000E+00  0.69053286074E+01  0.70498200811E+01  0.14200000000E+01 0.  1.
         -4   -1    0    0    0  501 -0.00000000000E+00 -0.00000000000E+00 -0.14156548884E+02  0.14227588562E+02  0.14200000000E+01 0. -1.
       1023    2    1    2    0    0  0.00000000000E+00  0.00000000000E+00 -0.72512202762E+01  0.21277408643E+02  0.20003697735E+02 0.  0.
        -11    1    3    3    0    0  0.71082193322E+01 -0.70363483659E+01 -0.36252587362E+01  0.10638584566E+02  0.51100000000E-03 0. -1.
         11    1    3    3    0    0 -0.71082193322E+01  0.70363483659E+01 -0.36259615399E+01  0.10638824077E+02  0.51100000000E-03 0.  1.
<mgrwt>
<rscale>  0 0.20003698E+02</rscale>
<asrwt>0</asrwt>
<pdfrwt beam="1">  1        4 0.10789376E-02 0.20003698E+02</pdfrwt>
<pdfrwt beam="2">  1       -4 0.21945099E-02 0.20003698E+02</pdfrwt>
<totfact> 0.12933537E+06</totfact>
</mgrwt>
</event>
<event>
 5    1  0.1154861E-006  0.2000159E+02  0.7818608E-02  0.1745296E+00
         -4   -1    0    0    0  501 -0.00000000000E+00  0.00000000000E+00  0.55747621917E+00  0.15255096640E+01  0.14200000000E+01 0.  1.
          4   -1    0    0  501    0  0.00000000000E+00 -0.00000000000E+00 -0.95055508497E+02  0.95066114339E+02  0.14200000000E+01 0. -1.
       1023    2    1    2    0    0  0.00000000000E+00  0.00000000000E+00 -0.94498032277E+02  0.96591624003E+02  0.20001593018E+02 0.  0.
        -11    1    3    3    0    0  0.10000017374E+02  0.76066690195E-01 -0.47727007269E+02  0.48763442831E+02  0.51100000000E-03 0.  1.
         11    1    3    3    0    0 -0.10000017374E+02 -0.76066690195E-01 -0.46771025008E+02  0.47828181172E+02  0.51100000000E-03 0. -1.
<mgrwt>
<rscale>  0 0.20001593E+02</rscale>
<asrwt>0</asrwt>
<pdfrwt beam="2">  1        4 0.14699197E-01 0.20001593E+02</pdfrwt>
<pdfrwt beam="1">  1       -4 0.16104559E-03 0.20001593E+02</pdfrwt>
<totfact> 0.98978258E+05</totfact>
</mgrwt>
</event>
<event>
 5    1  0.1154861E-006  0.2000201E+02  0.7818608E-02  0.1745288E+00
         -4   -1    0    0    0  501 -0.00000000000E+00  0.00000000000E+00  0.61351407410E+00  0.15468676476E+01  0.14200000000E+01 0. -1.
          4   -1    0    0  501    0  0.00000000000E+00 -0.00000000000E+00 -0.91653584778E+02  0.91664584234E+02  0.14200000000E+01 0.  1.
       1023    2    1    2    0    0  0.00000000000E+00  0.00000000000E+00 -0.91040070704E+02  0.93211451881E+02  0.20002007098E+02 0.  0.
        -11    1    3    3    0    0  0.86310890351E+01 -0.50520670267E+01 -0.45666851316E+02  0.46749121794E+02  0.51100000000E-03 0. -1.
         11    1    3    3    0    0 -0.86310890351E+01  0.50520670267E+01 -0.45373219389E+02  0.46462330087E+02  0.51100000000E-03 0.  1.
<mgrwt>
<rscale>  0 0.20002007E+02</rscale>
<asrwt>0</asrwt>
<pdfrwt beam="2">  1        4 0.14173188E-01 0.20002007E+02</pdfrwt>
<pdfrwt beam="1">  1       -4 0.16702939E-03 0.20002007E+02</pdfrwt>
<totfact> 0.99969614E+05</totfact>
</mgrwt>
</event>
<event>
 5    1  0.1154861E-006  0.2000157E+02  0.7818608E-02  0.1745297E+00
         -4   -1    0    0    0  501 -0.00000000000E+00  0.00000000000E+00  0.30060433204E+01  0.33245595864E+01  0.14200000000E+01 0. -1.
          4   -1    0    0  501    0  0.00000000000E+00 -0.00000000000E+00 -0.31262070693E+02  0.31294304019E+02  0.14200000000E+01 0.  1.
       1023    2    1    2    0    0  0.00000000000E+00  0.00000000000E+00 -0.28256027373E+02  0.34618863606E+02  0.20001565800E+02 0.  0.
        -11    1    3    3    0    0  0.35523742408E+01  0.93481509389E+01 -0.14286357746E+02  0.17438672732E+02  0.51100000000E-03 0.  1.
         11    1    3    3    0    0 -0.35523742408E+01 -0.93481509389E+01 -0.13969669627E+02  0.17180190874E+02  0.51100000000E-03 0. -1.
<mgrwt>
<rscale>  0 0.20001566E+02</rscale>
<asrwt>0</asrwt>
<pdfrwt beam="2">  1        4 0.48365298E-02 0.20001566E+02</pdfrwt>
<pdfrwt beam="1">  1       -4 0.48944896E-03 0.20001566E+02</pdfrwt>
<totfact> 0.12218868E+06</totfact>
</mgrwt>
</event>
<event>
 5    1  0.1154861E-006  0.2000011E+02  0.7818608E-02  0.1745326E+00
          4   -1    0    0  501    0  0.00000000000E+00  0.00000000000E+00  0.13215055362E+01  0.19397878447E+01  0.14200000000E+01 0. -1.
         -4   -1    0    0    0  501 -0.00000000000E+00 -0.00000000000E+00 -0.60697865045E+02  0.60714472913E+02  0.14200000000E+01 0.  1.
       1023    2    1    2    0    0  0.00000000000E+00  0.00000000000E+00 -0.59376359509E+02  0.62654260757E+02  0.20000108062E+02 0.  0.
        -11    1    3    3    0    0 -0.19691904600E+01  0.98042086391E+01 -0.29596190671E+02  0.31239953915E+02  0.51100000000E-03 0.  1.
         11    1    3    3    0    0  0.19691904600E+01 -0.98042086391E+01 -0.29780168838E+02  0.31414306842E+02  0.51100000000E-03 0. -1.
<mgrwt>
<rscale>  0 0.20000108E+02</rscale>
<asrwt>0</asrwt>
<pdfrwt beam="1">  1        4 0.25214630E-03 0.20000108E+02</pdfrwt>
<pdfrwt beam="2">  1       -4 0.93869690E-02 0.20000108E+02</pdfrwt>
<totfact> 0.11017993E+06</totfact>
</mgrwt>
</event>
<event>
 5    1  0.1154861E-006  0.2000220E+02  0.7818608E-02  0.1745284E+00
          4   -1    0    0  501    0  0.00000000000E+00  0.00000000000E+00  0.21268135186E+02  0.21315486724E+02  0.14200000000E+01 0.  1.
         -4   -1    0    0    0  501 -0.00000000000E+00 -0.00000000000E+00 -0.45417980775E+01  0.47586058649E+01  0.14200000000E+01 0. -1.
       1023    2    1    2    0    0  0.00000000000E+00  0.00000000000E+00  0.16726337108E+02  0.26074092589E+02  0.20002198661E+02 0.  0.
        -11    1    3    3    0    0  0.74500710242E+01 -0.66719271414E+01  0.82826266936E+01  0.12985379288E+02  0.51100000000E-03 0.  1.
         11    1    3    3    0    0 -0.74500710242E+01  0.66719271414E+01  0.84437104147E+01  0.13088713301E+02  0.51100000000E-03 0. -1.
<mgrwt>
<rscale>  0 0.20002199E+02</rscale>
<asrwt>0</asrwt>
<pdfrwt beam="1">  1        4 0.32923407E-02 0.20002199E+02</pdfrwt>
<pdfrwt beam="2">  1       -4 0.71905813E-03 0.20002199E+02</pdfrwt>
<totfact> 0.12663258E+06</totfact>
</mgrwt>
</event>
<event>
 5    1  0.1178231E-006  0.2000148E+02  0.7818608E-02  0.1745299E+00
         -4   -1    0    0    0  501 -0.00000000000E+00  0.00000000000E+00  0.10195578505E+02  0.10293989560E+02  0.14200000000E+01 0.  1.
          4   -1    0    0  501    0  0.00000000000E+00 -0.00000000000E+00 -0.96116886727E+01  0.97160156001E+01  0.14200000000E+01 0. -1.
       1023    2    1    2    0    0  0.00000000000E+00  0.00000000000E+00  0.58388983261E+00  0.20010005160E+02  0.20001484424E+02 0.  0.
        -11    1    3    3    0    0 -0.73940704119E+01 -0.67326400484E+01  0.17304458420E+00  0.10001533081E+02  0.51100000000E-03 0. -1.
         11    1    3    3    0    0  0.73940704119E+01  0.67326400484E+01  0.41084524842E+00  0.10008472079E+02  0.51100000000E-03 0.  1.
<mgrwt>
<rscale>  0 0.20001484E+02</rscale>
<asrwt>0</asrwt>
<pdfrwt beam="2">  1        4 0.14943166E-02 0.20001484E+02</pdfrwt>
<pdfrwt beam="1">  1       -4 0.15841458E-02 0.20001484E+02</pdfrwt>
<totfact> 0.13011479E+06</totfact>
</mgrwt>
</event>
<event>
 5    1  0.1154861E-006  0.2000399E+02  0.7818608E-02  0.1745249E+00
          4   -1    0    0  501    0  0.00000000000E+00  0.00000000000E+00  0.47853932430E+01  0.49916318465E+01  0.14200000000E+01 0.  1.
         -4   -1    0    0    0  501 -0.00000000000E+00 -0.00000000000E+00 -0.20232632708E+02  0.20282401887E+02  0.14200000000E+01 0. -1.
       1023    2    1    2    0    0  0.00000000000E+00  0.00000000000E+00 -0.15447239465E+02  0.25274033733E+02  0.20003988954E+02 0.  0.
        -11    1    3    3    0    0 -0.99168736368E+01 -0.13013418915E+01 -0.77804020387E+01  0.12671721651E+02  0.51100000000E-03 0. -1.
         11    1    3    3    0    0  0.99168736368E+01  0.13013418915E+01 -0.76668374263E+01  0.12602312083E+02  0.51100000000E-03 0.  1.
<mgrwt>
<rscale>  0 0.20003989E+02</rscale>
<asrwt>0</asrwt>
<pdfrwt beam="1">  1        4 0.75590726E-03 0.20003989E+02</pdfrwt>
<pdfrwt beam="2">  1       -4 0.31324056E-02 0.20003989E+02</pdfrwt>
<totfact> 0.12705170E+06</totfact>
</mgrwt>
</event>
<event>
 5    1  0.1159597E-006  0.2000055E+02  0.7818608E-02  0.1745317E+00
         -4   -1    0    0    0  501 -0.00000000000E+00  0.00000000000E+00  0.20598260055E+02  0.20647147921E+02  0.14200000000E+01 0. -1.
          4   -1    0    0  501    0  0.00000000000E+00 -0.00000000000E+00 -0.46952666890E+01  0.49052960442E+01  0.14200000000E+01 0.  1.
       1023    2    1    2    0    0  0.00000000000E+00  0.00000000000E+00  0.15902993366E+02  0.25552443965E+02  0.20000554858E+02 0.  0.
        -11    1    3    3    0    0  0.93280035210E+01 -0.36042824191E+01  0.78809749553E+01  0.12732331599E+02  0.51100000000E-03 0.  1.
         11    1    3    3    0    0 -0.93280035210E+01  0.36042824191E+01  0.80220184104E+01  0.12820112366E+02  0.51100000000E-03 0. -1.
<mgrwt>
<rscale>  0 0.20000555E+02</rscale>
<asrwt>0</asrwt>
<pdfrwt beam="2">  1        4 0.74226543E-03 0.20000555E+02</pdfrwt>
<pdfrwt beam="1">  1       -4 0.31888798E-02 0.20000555E+02</pdfrwt>
<totfact> 0.12694163E+06</totfact>
</mgrwt>
</event>
<event>
 5    1  0.1154861E-006  0.2000071E+02  0.7818608E-02  0.1745314E+00
          4   -1    0    0  501    0  0.00000000000E+00  0.00000000000E+00  0.59219343699E+02  0.59236366095E+02  0.14200000000E+01 0. -1.
         -4   -1    0    0    0  501 -0.00000000000E+00 -0.00000000000E+00 -0.13698539122E+01  0.19730432689E+01  0.14200000000E+01 0.  1.
       1023    2    1    2    0    0  0.00000000000E+00  0.00000000000E+00  0.57849489787E+02  0.61209409364E+02  0.20000708139E+02 0.  0.
        -11    1    3    3    0    0 -0.65165854467E+01  0.75855644210E+01  0.28986545146E+02  0.30663112582E+02  0.51100000000E-03 0.  1.
         11    1    3    3    0    0  0.65165854467E+01 -0.75855644210E+01  0.28862944641E+02  0.30546296782E+02  0.51100000000E-03 0. -1.
<mgrwt>
<rscale>  0 0.20000708E+02</rscale>
<asrwt>0</asrwt>
<pdfrwt beam="1">  1        4 0.91583758E-02 0.20000708E+02</pdfrwt>
<pdfrwt beam="2">  1       -4 0.25845538E-03 0.20000708E+02</pdfrwt>
<totfact> 0.11071876E+06</totfact>
</mgrwt>
</event>
<event>
 5    1  0.1154861E-006  0.2000057E+02  0.7818608E-02  0.1745317E+00
          4   -1    0    0  501    0  0.00000000000E+00  0.00000000000E+00  0.29190686018E+02  0.29225204024E+02  0.14200000000E+01 0. -1.
         -4   -1    0    0    0  501 -0.00000000000E+00 -0.00000000000E+00 -0.32405819243E+01  0.35380462417E+01  0.14200000000E+01 0.  1.
       1023    2    1    2    0    0  0.00000000000E+00  0.00000000000E+00  0.25950104094E+02  0.32763250265E+02  0.20000566628E+02 0.  0.
        -11    1    3    3    0    0  0.33582759795E+01 -0.94195139159E+01  0.12942039374E+02  0.16355477473E+02  0.51100000000E-03 0. -1.
         11    1    3    3    0    0 -0.33582759795E+01  0.94195139159E+01  0.13008064720E+02  0.16407772792E+02  0.51100000000E-03 0.  1.
<mgrwt>
<rscale>  0 0.20000567E+02</rscale>
<asrwt>0</asrwt>
<pdfrwt beam="1">  1        4 0.45164119E-02 0.20000567E+02</pdfrwt>
<pdfrwt beam="2">  1       -4 0.52408817E-03 0.20000567E+02</pdfrwt>
<totfact> 0.12312955E+06</totfact>
</mgrwt>
</event>
<event>
 5    1  0.1154861E-006  0.2000142E+02  0.7818608E-02  0.1745300E+00
         -4   -1    0    0    0  501 -0.00000000000E+00  0.00000000000E+00  0.90233239300E+01  0.91343732542E+01  0.14200000000E+01 0. -1.
          4   -1    0    0  501    0  0.00000000000E+00 -0.00000000000E+00 -0.10858613900E+02  0.10951068251E+02  0.14200000000E+01 0.  1.
       1023    2    1    2    0    0  0.00000000000E+00  0.00000000000E+00 -0.18352899703E+01  0.20085441505E+02  0.20001416729E+02 0.  0.
        -11    1    3    3    0    0  0.35582882391E+01  0.93460341593E+01 -0.85105021774E+00  0.10036635713E+02  0.51100000000E-03 0.  1.
         11    1    3    3    0    0 -0.35582882391E+01 -0.93460341593E+01 -0.98423975258E+00  0.10048805792E+02  0.51100000000E-03 0. -1.
<mgrwt>
<rscale>  0 0.20001417E+02</rscale>
<asrwt>0</asrwt>
<pdfrwt beam="2">  1        4 0.16862101E-02 0.20001417E+02</pdfrwt>
<pdfrwt beam="1">  1       -4 0.14038578E-02 0.20001417E+02</pdfrwt>
<totfact> 0.13007094E+06</totfact>
</mgrwt>
</event>
<event>
 5    1  0.1154861E-006  0.2000113E+02  0.7818608E-02  0.1745306E+00
          4   -1    0    0  501    0  0.00000000000E+00  0.00000000000E+00  0.25397778436E+00  0.14425341296E+01  0.14200000000E+01 0. -1.
         -4   -1    0    0    0  501 -0.00000000000E+00 -0.00000000000E+00 -0.11670633354E+03  0.11671497200E+03  0.14200000000E+01 0.  1.
       1023    2    1    2    0    0  0.00000000000E+00  0.00000000000E+00 -0.11645235576E+03  0.11815750613E+03  0.20001127296E+02 0.  0.
        -11    1    3    3    0    0 -0.33945594167E+01 -0.94063545231E+01 -0.58778271373E+02  0.59622879207E+02  0.51100000000E-03 0.  1.
         11    1    3    3    0    0  0.33945594167E+01  0.94063545231E+01 -0.57674084383E+02  0.58534626921E+02  0.51100000000E-03 0. -1.
<mgrwt>
<rscale>  0 0.20001127E+02</rscale>
<asrwt>0</asrwt>
<pdfrwt beam="1">  1        4 0.13116551E-03 0.20001127E+02</pdfrwt>
<pdfrwt beam="2">  1       -4 0.18046900E-01 0.20001127E+02</pdfrwt>
<totfact> 0.93114174E+05</totfact>
</mgrwt>
</event>
<event>
 5    1  0.1154861E-006  0.2000069E+02  0.7818608E-02  0.1745314E+00
          4   -1    0    0  501    0  0.00000000000E+00  0.00000000000E+00  0.32689745706E+01  0.35640699689E+01  0.14200000000E+01 0.  1.
         -4   -1    0    0    0  501 -0.00000000000E+00 -0.00000000000E+00 -0.28958314535E+02  0.28993109194E+02  0.14200000000E+01 0. -1.
       1023    2    1    2    0    0  0.00000000000E+00  0.00000000000E+00 -0.25689339965E+02  0.32557179163E+02  0.20000693168E+02 0.  0.
        -11    1    3    3    0    0  0.14108108867E+01 -0.99001887527E+01 -0.12930910394E+02  0.16346637837E+02  0.51100000000E-03 0.  1.
         11    1    3    3    0    0 -0.14108108867E+01  0.99001887527E+01 -0.12758429570E+02  0.16210541325E+02  0.51100000000E-03 0. -1.
<mgrwt>
<rscale>  0 0.20000693E+02</rscale>
<asrwt>0</asrwt>
<pdfrwt beam="1">  1        4 0.52829534E-03 0.20000693E+02</pdfrwt>
<pdfrwt beam="2">  1       -4 0.44805013E-02 0.20000693E+02</pdfrwt>
<totfact> 0.12323237E+06</totfact>
</mgrwt>
</event>
<event>
 5    1  0.1154861E-006  0.2000540E+02  0.7818608E-02  0.1745221E+00
          4   -1    0    0  501    0  0.00000000000E+00  0.00000000000E+00  0.48512874364E+02  0.48533652027E+02  0.14200000000E+01 0. -1.
         -4   -1    0    0    0  501 -0.00000000000E+00 -0.00000000000E+00 -0.17941816471E+01  0.22881188306E+01  0.14200000000E+01 0.  1.
       1023    2    1    2    0    0  0.00000000000E+00  0.00000000000E+00  0.46718692717E+02  0.50821770857E+02  0.20005402868E+02 0.  0.
        -11    1    3    3    0    0  0.96758483330E+01 -0.25254724310E+01  0.22769099036E+02  0.24868291520E+02  0.51100000000E-03 0. -1.
         11    1    3    3    0    0 -0.96758483330E+01  0.25254724310E+01  0.23949593681E+02  0.25953479337E+02  0.51100000000E-03 0.  1.
<mgrwt>
<rscale>  0 0.20005403E+02</rscale>
<asrwt>0</asrwt>
<pdfrwt beam="1">  1        4 0.75031119E-02 0.20005403E+02</pdfrwt>
<pdfrwt beam="2">  1       -4 0.31562142E-03 0.20005403E+02</pdfrwt>
<totfact> 0.11479538E+06</totfact>
</mgrwt>
</event>
<event>
 5    1  0.1154861E-006  0.2000257E+02  0.7818608E-02  0.1745277E+00
          4   -1    0    0  501    0  0.00000000000E+00  0.00000000000E+00  0.55709825769E+00  0.15253715838E+01  0.14200000000E+01 0. -1.
         -4   -1    0    0    0  501 -0.00000000000E+00 -0.00000000000E+00 -0.95088429610E+02  0.95099031781E+02  0.14200000000E+01 0.  1.
       1023    2    1    2    0    0  0.00000000000E+00  0.00000000000E+00 -0.94531331353E+02  0.96624403365E+02  0.20002567795E+02 0.  0.
        -11    1    3    3    0    0 -0.91768498791E+00  0.99579045581E+01 -0.48008862676E+02  0.49039299593E+02  0.51100000000E-03 0. -1.
         11    1    3    3    0    0  0.91768498791E+00 -0.99579045581E+01 -0.46522468677E+02  0.47585103772E+02  0.51100000000E-03 0.  1.
<mgrwt>
<rscale>  0 0.20002568E+02</rscale>
<asrwt>0</asrwt>
<pdfrwt beam="1">  1        4 0.16100561E-03 0.20002568E+02</pdfrwt>
<pdfrwt beam="2">  1       -4 0.14704280E-01 0.20002568E+02</pdfrwt>
<totfact> 0.98959087E+05</totfact>
</mgrwt>
</event>
<event>
 4    1  0.1253959E-006  0.2095903E+02  0.7818608E-02  0.1726903E+00
          4   -1    0    0  501    0  0.00000000000E+00  0.00000000000E+00  0.46889470323E+02  0.46910967025E+02  0.14200000000E+01 0. -1.
         -4   -1    0    0    0  501 -0.00000000000E+00 -0.00000000000E+00 -0.21027432627E+01  0.25373074762E+01  0.14200000000E+01 0.  1.
        -11    1    1    2    0    0 -0.95440331905E+01 -0.41050257771E+01  0.19158111585E+02  0.21793876340E+02  0.51100000000E-03 0. -1.
         11    1    1    2    0    0  0.95440331905E+01  0.41050257771E+01  0.25628615476E+02  0.27654398161E+02  0.51100000000E-03 0.  1.
<mgrwt>
<rscale>  0 0.20959030E+02</rscale>
<asrwt>0</asrwt>
<pdfrwt beam="1">  1        4 0.72488463E-02 0.20959030E+02</pdfrwt>
<pdfrwt beam="2">  1       -4 0.35858057E-03 0.20959030E+02</pdfrwt>
<totfact> 0.10492461E+06</totfact>
</mgrwt>
</event>
<event>
 5    1  0.1154861E-006  0.2000111E+02  0.7818608E-02  0.1745306E+00
          4   -1    0    0  501    0  0.00000000000E+00  0.00000000000E+00  0.98573791192E+00  0.17286061527E+01  0.14200000000E+01 0. -1.
         -4   -1    0    0    0  501 -0.00000000000E+00 -0.00000000000E+00 -0.72939136603E+02  0.72952957777E+02  0.14200000000E+01 0.  1.
       1023    2    1    2    0    0  0.00000000000E+00  0.00000000000E+00 -0.71953398691E+02  0.74681563930E+02  0.20001110163E+02 0.  0.
        -11    1    3    3    0    0 -0.88273864764E+01  0.46991378575E+01 -0.35676753725E+02  0.37051793549E+02  0.51100000000E-03 0. -1.
         11    1    3    3    0    0  0.88273864764E+01 -0.46991378575E+01 -0.36276644967E+02  0.37629770381E+02  0.51100000000E-03 0.  1.
<mgrwt>
<rscale>  0 0.20001110E+02</rscale>
<asrwt>0</asrwt>
<pdfrwt beam="1">  1        4 0.20985892E-03 0.20001110E+02</pdfrwt>
<pdfrwt beam="2">  1       -4 0.11279609E-01 0.20001110E+02</pdfrwt>
<totfact> 0.10587360E+06</totfact>
</mgrwt>
</event>
<event>
 5    1  0.1167640E-006  0.2000184E+02  0.7818608E-02  0.1745292E+00
          4   -1    0    0  501    0  0.00000000000E+00  0.00000000000E+00  0.12044730280E+02  0.12128146087E+02  0.14200000000E+01 0.  1.
         -4   -1    0    0    0  501 -0.00000000000E+00 -0.00000000000E+00 -0.81300911950E+01  0.82531680486E+01  0.14200000000E+01 0. -1.
       1023    2    1    2    0    0  0.00000000000E+00  0.00000000000E+00  0.39146390847E+01  0.20381314136E+02  0.20001839084E+02 0.  0.
        -11    1    3    3    0    0 -0.92223875611E+00  0.99582516392E+01  0.19236565809E+01  0.10184191423E+02  0.51100000000E-03 0.  1.
         11    1    3    3    0    0  0.92223875611E+00 -0.99582516392E+01  0.19909825039E+01  0.10197122713E+02  0.51100000000E-03 0. -1.
<mgrwt>
<rscale>  0 0.20001839E+02</rscale>
<asrwt>0</asrwt>
<pdfrwt beam="1">  1        4 0.18689195E-02 0.20001839E+02</pdfrwt>
<pdfrwt beam="2">  1       -4 0.12666673E-02 0.20001839E+02</pdfrwt>
<totfact> 0.12988920E+06</totfact>
</mgrwt>
</event>
<event>
 5    1  0.1183273E-006  0.2000061E+02  0.7818608E-02  0.1745316E+00
          4   -1    0    0  501    0  0.00000000000E+00  0.00000000000E+00  0.26212700850E+02  0.26251134944E+02  0.14200000000E+01 0.  1.
         -4   -1    0    0    0  501 -0.00000000000E+00 -0.00000000000E+00 -0.36402715818E+01  0.39074259032E+01  0.14200000000E+01 0. -1.
       1023    2    1    2    0    0  0.00000000000E+00  0.00000000000E+00  0.22572429269E+02  0.30158560848E+02  0.20000605724E+02 0.  0.
        -11    1    3    3    0    0 -0.25044868107E+01  0.96813336128E+01  0.11396839792E+02  0.15162078756E+02  0.51100000000E-03 0. -1.
         11    1    3    3    0    0  0.25044868107E+01 -0.96813336128E+01  0.11175589477E+02  0.14996482092E+02  0.51100000000E-03 0.  1.
<mgrwt>
<rscale>  0 0.20000606E+02</rscale>
<asrwt>0</asrwt>
<pdfrwt beam="1">  1        4 0.40562299E-02 0.20000606E+02</pdfrwt>
<pdfrwt beam="2">  1       -4 0.58354859E-03 0.20000606E+02</pdfrwt>
<totfact> 0.12446701E+06</totfact>
</mgrwt>
</event>
<event>
 5    1  0.1154861E-006  0.2000013E+02  0.7818608E-02  0.1745325E+00
         -4   -1    0    0    0  501 -0.00000000000E+00  0.00000000000E+00  0.58131200938E+01  0.59840425487E+01  0.14200000000E+01 0.  1.
          4   -1    0    0  501    0  0.00000000000E+00 -0.00000000000E+00 -0.16752057474E+02  0.16812133404E+02  0.14200000000E+01 0. -1.
       1023    2    1    2    0    0  0.00000000000E+00  0.00000000000E+00 -0.10938937380E+02  0.22796175953E+02  0.20000132177E+02 0.  0.
        -11    1    3    3    0    0  0.90000860354E+01 -0.43587820710E+01 -0.55015398870E+01  0.11413477611E+02  0.51100000000E-03 0.  1.
         11    1    3    3    0    0 -0.90000860354E+01  0.43587820710E+01 -0.54373974929E+01  0.11382698342E+02  0.51100000000E-03 0. -1.
<mgrwt>
<rscale>  0 0.20000132E+02</rscale>
<asrwt>0</asrwt>
<pdfrwt beam="2">  1        4 0.25950087E-02 0.20000132E+02</pdfrwt>
<pdfrwt beam="1">  1       -4 0.91209528E-03 0.20000132E+02</pdfrwt>
<totfact> 0.12850086E+06</totfact>
</mgrwt>
</event>
<event>
 4    1  0.1154861E-006  0.2013999E+02  0.7818608E-02  0.1742558E+00
          4   -1    0    0  501    0  0.00000000000E+00  0.00000000000E+00  0.18898944291E+01  0.23639164438E+01  0.14200000000E+01 0. -1.
         -4   -1    0    0    0  501 -0.00000000000E+00 -0.00000000000E+00 -0.47191283963E+02  0.47212643244E+02  0.14200000000E+01 0.  1.
        -11    1    1    2    0    0 -0.25164334911E+00 -0.10005896563E+02 -0.19927814626E+02  0.22300203731E+02  0.51100000000E-03 0. -1.
         11    1    1    2    0    0  0.25164334911E+00  0.10005896563E+02 -0.25373574908E+02  0.27276355957E+02  0.51100000000E-03 0.  1.
<mgrwt>
<rscale>  0 0.20139994E+02</rscale>
<asrwt>0</asrwt>
<pdfrwt beam="1">  1        4 0.32885928E-03 0.20139994E+02</pdfrwt>
<pdfrwt beam="2">  1       -4 0.72983030E-02 0.20139994E+02</pdfrwt>
<totfact> 0.11376654E+06</totfact>
</mgrwt>
</event>
<event>
 5    1  0.1154861E-006  0.2000023E+02  0.7818608E-02  0.1745324E+00
          4   -1    0    0  501    0  0.00000000000E+00  0.00000000000E+00  0.21929695884E+02  0.21975621983E+02  0.14200000000E+01 0. -1.
         -4   -1    0    0    0  501 -0.00000000000E+00 -0.00000000000E+00 -0.43975262901E+01  0.46211078187E+01  0.14200000000E+01 0.  1.
       1023    2    1    2    0    0  0.00000000000E+00  0.00000000000E+00  0.17532169594E+02  0.26596729802E+02  0.20000226636E+02 0.  0.
        -11    1    3    3    0    0 -0.88151934500E+01  0.47214811255E+01  0.88291151670E+01  0.13339913586E+02  0.51100000000E-03 0. -1.
         11    1    3    3    0    0  0.88151934500E+01 -0.47214811255E+01  0.87030544266E+01  0.13256816216E+02  0.51100000000E-03 0.  1.
<mgrwt>
<rscale>  0 0.20000227E+02</rscale>
<asrwt>0</asrwt>
<pdfrwt beam="1">  1        4 0.33945307E-02 0.20000227E+02</pdfrwt>
<pdfrwt beam="2">  1       -4 0.69727386E-03 0.20000227E+02</pdfrwt>
<totfact> 0.12637163E+06</totfact>
</mgrwt>
</event>
<event>
 5    1  0.1154861E-006  0.2000070E+02  0.7818608E-02  0.1745314E+00
          4   -1    0    0  501    0  0.00000000000E+00  0.00000000000E+00  0.84147087955E+00  0.16505978436E+01  0.14200000000E+01 0.  1.
         -4   -1    0    0    0  501 -0.00000000000E+00 -0.00000000000E+00 -0.79442693864E+02  0.79455383760E+02  0.14200000000E+01 0. -1.
       1023    2    1    2    0    0  0.00000000000E+00  0.00000000000E+00 -0.78601222985E+02  0.81105981603E+02  0.20000699916E+02 0.  0.
        -11    1    3    3    0    0 -0.37723400247E+01 -0.92613705087E+01 -0.39539351929E+02  0.40784358328E+02  0.51100000000E-03 0. -1.
         11    1    3    3    0    0  0.37723400247E+01  0.92613705087E+01 -0.39061871056E+02  0.40321623276E+02  0.51100000000E-03 0.  1.
<mgrwt>
<rscale>  0 0.20000700E+02</rscale>
<asrwt>0</asrwt>
<pdfrwt beam="1">  1        4 0.19267380E-03 0.20000700E+02</pdfrwt>
<pdfrwt beam="2">  1       -4 0.12285166E-01 0.20000700E+02</pdfrwt>
<totfact> 0.10374432E+06</totfact>
</mgrwt>
</event>
<event>
 5    1  0.1179817E-006  0.2000152E+02  0.7818608E-02  0.1745298E+00
         -4   -1    0    0    0  501 -0.00000000000E+00  0.00000000000E+00  0.30122097979E+01  0.33301363135E+01  0.14200000000E+01 0.  1.
          4   -1    0    0  501    0  0.00000000000E+00 -0.00000000000E+00 -0.31203991448E+02  0.31236284707E+02  0.14200000000E+01 0. -1.
       1023    2    1    2    0    0  0.00000000000E+00  0.00000000000E+00 -0.28191781650E+02  0.34566421021E+02  0.20001522681E+02 0.  0.
        -11    1    3    3    0    0  0.99863299611E+01 -0.53145122646E+00 -0.14229762821E+02  0.17392394220E+02  0.51100000000E-03 0.  1.
         11    1    3    3    0    0 -0.99863299611E+01  0.53145122646E+00 -0.13962018829E+02  0.17174026800E+02  0.51100000000E-03 0. -1.
<mgrwt>
<rscale>  0 0.20001523E+02</rscale>
<asrwt>0</asrwt>
<pdfrwt beam="2">  1        4 0.48275538E-02 0.20001523E+02</pdfrwt>
<pdfrwt beam="1">  1       -4 0.49035690E-03 0.20001523E+02</pdfrwt>
<totfact> 0.12221517E+06</totfact>
</mgrwt>
</event>
<event>
 5    1  0.1154861E-006  0.2001112E+02  0.7818608E-02  0.1745107E+00
         -4   -1    0    0    0  501 -0.00000000000E+00  0.00000000000E+00  0.28279826194E+02  0.28315454606E+02  0.14200000000E+01 0.  1.
          4   -1    0    0  501    0  0.00000000000E+00 -0.00000000000E+00 -0.33581314088E+01  0.36460179043E+01  0.14200000000E+01 0. -1.
       1023    2    1    2    0    0  0.00000000000E+00  0.00000000000E+00  0.24921694785E+02  0.31961472510E+02  0.20011118262E+02 0.  0.
        -11    1    3    3    0    0  0.99990812755E+01 -0.15762107515E+00  0.11943935065E+02  0.15577678128E+02  0.51100000000E-03 0.  1.
         11    1    3    3    0    0 -0.99990812755E+01  0.15762107515E+00  0.12977759720E+02  0.16383794382E+02  0.51100000000E-03 0. -1.
<mgrwt>
<rscale>  0 0.20011118E+02</rscale>
<asrwt>0</asrwt>
<pdfrwt beam="2">  1        4 0.54152137E-03 0.20011118E+02</pdfrwt>
<pdfrwt beam="1">  1       -4 0.43756282E-02 0.20011118E+02</pdfrwt>
<totfact> 0.12340499E+06</totfact>
</mgrwt>
</event>
<event>
 5    1  0.1154861E-006  0.2000035E+02  0.7818608E-02  0.1745321E+00
         -4   -1    0    0    0  501 -0.00000000000E+00  0.00000000000E+00  0.22103795364E+02  0.22149360476E+02  0.14200000000E+01 0.  1.
          4   -1    0    0  501    0  0.00000000000E+00 -0.00000000000E+00 -0.43612519468E+01  0.45866020694E+01  0.14200000000E+01 0. -1.
       1023    2    1    2    0    0  0.00000000000E+00  0.00000000000E+00  0.17742543418E+02  0.26735962546E+02  0.20000346155E+02 0.  0.
        -11    1    3    3    0    0 -0.84514421229E+00  0.99642905069E+01  0.89326364335E+01  0.13408704186E+02  0.51100000000E-03 0.  1.
         11    1    3    3    0    0  0.84514421229E+00 -0.99642905069E+01  0.88099069841E+01  0.13327258359E+02  0.51100000000E-03 0. -1.
<mgrwt>
<rscale>  0 0.20000346E+02</rscale>
<asrwt>0</asrwt>
<pdfrwt beam="2">  1        4 0.69180148E-03 0.20000346E+02</pdfrwt>
<pdfrwt beam="1">  1       -4 0.34214235E-02 0.20000346E+02</pdfrwt>
<totfact> 0.12629415E+06</totfact>
</mgrwt>
</event>
<event>
 5    1  0.1154861E-006  0.2000054E+02  0.7818608E-02  0.1745317E+00
          4   -1    0    0  501    0  0.00000000000E+00  0.00000000000E+00  0.45812815032E+02  0.45834816691E+02  0.14200000000E+01 0.  1.
         -4   -1    0    0    0  501 -0.00000000000E+00 -0.00000000000E+00 -0.19269878482E+01  0.23936754515E+01  0.14200000000E+01 0. -1.
       1023    2    1    2    0    0  0.00000000000E+00  0.00000000000E+00  0.43885827184E+02  0.48228492143E+02  0.20000540663E+02 0.  0.
        -11    1    3    3    0    0 -0.61312160964E+01  0.79000727006E+01  0.21823631848E+02  0.24005704880E+02  0.51100000000E-03 0.  1.
         11    1    3    3    0    0  0.61312160964E+01 -0.79000727006E+01  0.22062195335E+02  0.24222787263E+02  0.51100000000E-03 0. -1.
<mgrwt>
<rscale>  0 0.20000541E+02</rscale>
<asrwt>0</asrwt>
<pdfrwt beam="1">  1        4 0.70857168E-02 0.20000541E+02</pdfrwt>
<pdfrwt beam="2">  1       -4 0.33405115E-03 0.20000541E+02</pdfrwt>
<totfact> 0.11594738E+06</totfact>
</mgrwt>
</event>
<event>
 5    1  0.1154861E-006  0.2000467E+02  0.7818608E-02  0.1745235E+00
          4   -1    0    0  501    0  0.00000000000E+00  0.00000000000E+00  0.86390575147E+02  0.86402244613E+02  0.14200000000E+01 0.  1.
         -4   -1    0    0    0  501 -0.00000000000E+00 -0.00000000000E+00 -0.70653255891E+00  0.15860606094E+01  0.14200000000E+01 0. -1.
       1023    2    1    2    0    0  0.00000000000E+00  0.00000000000E+00  0.85684042588E+02  0.87988305223E+02  0.20004666999E+02 0.  0.
        -11    1    3    3    0    0 -0.99338329178E+01 -0.11490874891E+01  0.41906531665E+02  0.43083161849E+02  0.51100000000E-03 0.  1.
         11    1    3    3    0    0  0.99338329178E+01  0.11490874891E+01  0.43777510923E+02  0.44905143373E+02  0.51100000000E-03 0. -1.
<mgrwt>
<rscale>  0 0.20004667E+02</rscale>
<asrwt>0</asrwt>
<pdfrwt beam="1">  1        4 0.13359414E-01 0.20004667E+02</pdfrwt>
<pdfrwt beam="2">  1       -4 0.17725093E-03 0.20004667E+02</pdfrwt>
<totfact> 0.10152675E+06</totfact>
</mgrwt>
</event>
<event>
 5    1  0.1170954E-006  0.2000246E+02  0.7818608E-02  0.1745279E+00
          4   -1    0    0  501    0  0.00000000000E+00  0.00000000000E+00  0.48084353328E+01  0.50137261941E+01  0.14200000000E+01 0. -1.
         -4   -1    0    0    0  501 -0.00000000000E+00 -0.00000000000E+00 -0.20136317784E+02  0.20186324427E+02  0.14200000000E+01 0.  1.
       1023    2    1    2    0    0  0.00000000000E+00  0.00000000000E+00 -0.15327882451E+02  0.25200050621E+02  0.20002464121E+02 0.  0.
        -11    1    3    3    0    0 -0.92511428063E+00 -0.99581799509E+01 -0.77380272646E+01  0.12645088002E+02  0.51100000000E-03 0. -1.
         11    1    3    3    0    0  0.92511428063E+00  0.99581799509E+01 -0.75898551864E+01  0.12554962620E+02  0.51100000000E-03 0.  1.
<mgrwt>
<rscale>  0 0.20002464E+02</rscale>
<asrwt>0</asrwt>
<pdfrwt beam="1">  1        4 0.75939756E-03 0.20002464E+02</pdfrwt>
<pdfrwt beam="2">  1       -4 0.31175333E-02 0.20002464E+02</pdfrwt>
<totfact> 0.12711257E+06</totfact>
</mgrwt>
</event>
<event>
 5    1  0.1154861E-006  0.2000955E+02  0.7818608E-02  0.1745138E+00
         -4   -1    0    0    0  501 -0.00000000000E+00  0.00000000000E+00  0.11003693080E+03  0.11004609280E+03  0.14200000000E+01 0. -1.
          4   -1    0    0  501    0  0.00000000000E+00 -0.00000000000E+00 -0.34058813893E+00  0.14602740429E+01  0.14200000000E+01 0.  1.
       1023    2    1    2    0    0  0.00000000000E+00  0.00000000000E+00  0.10969634266E+03  0.11150636684E+03  0.20009554034E+02 0.  0.
        -11    1    3    3    0    0  0.98630538720E+01  0.16764503357E+01  0.55251774942E+02  0.56150235546E+02  0.51100000000E-03 0.  1.
         11    1    3    3    0    0 -0.98630538720E+01 -0.16764503357E+01  0.54444567720E+02  0.55356131295E+02  0.51100000000E-03 0. -1.
<mgrwt>
<rscale>  0 0.20009554E+02</rscale>
<asrwt>0</asrwt>
<pdfrwt beam="2">  1        4 0.13923269E-03 0.20009554E+02</pdfrwt>
<pdfrwt beam="1">  1       -4 0.17015585E-01 0.20009554E+02</pdfrwt>
<totfact> 0.94761823E+05</totfact>
</mgrwt>
</event>
<event>
 5    1  0.1154861E-006  0.2000011E+02  0.7818608E-02  0.1745326E+00
         -4   -1    0    0    0  501 -0.00000000000E+00  0.00000000000E+00  0.28810502624E+02  0.28845475580E+02  0.14200000000E+01 0.  1.
          4   -1    0    0  501    0  0.00000000000E+00 -0.00000000000E+00 -0.32870227240E+01  0.35806310041E+01  0.14200000000E+01 0. -1.
       1023    2    1    2    0    0  0.00000000000E+00  0.00000000000E+00  0.25523479900E+02  0.32426106584E+02  0.20000109050E+02 0.  0.
        -11    1    3    3    0    0 -0.68142356349E+01  0.73189065815E+01  0.12713388201E+02  0.16174994302E+02  0.51100000000E-03 0.  1.
         11    1    3    3    0    0  0.68142356349E+01 -0.73189065815E+01  0.12810091698E+02  0.16251112282E+02  0.51100000000E-03 0. -1.
<mgrwt>
<rscale>  0 0.20000109E+02</rscale>
<asrwt>0</asrwt>
<pdfrwt beam="2">  1        4 0.53097128E-03 0.20000109E+02</pdfrwt>
<pdfrwt beam="1">  1       -4 0.44576605E-02 0.20000109E+02</pdfrwt>
<totfact> 0.12330621E+06</totfact>
</mgrwt>
</event>
<event>
 5    1  0.1154861E-006  0.2000016E+02  0.7818608E-02  0.1745325E+00
         -4   -1    0    0    0  501 -0.00000000000E+00  0.00000000000E+00  0.12468044475E+02  0.12548646661E+02  0.14200000000E+01 0. -1.
          4   -1    0    0  501    0  0.00000000000E+00 -0.00000000000E+00 -0.78502854688E+01  0.79776802356E+01  0.14200000000E+01 0.  1.
       1023    2    1    2    0    0  0.00000000000E+00  0.00000000000E+00  0.46177590062E+01  0.20526326897E+02  0.20000159940E+02 0.  0.
        -11    1    3    3    0    0  0.93902917916E+01 -0.34385226783E+01  0.22841412371E+01  0.10257598140E+02  0.51100000000E-03 0. -1.
         11    1    3    3    0    0 -0.93902917916E+01  0.34385226783E+01  0.23336177691E+01  0.10268728757E+02  0.51100000000E-03 0.  1.
<mgrwt>
<rscale>  0 0.20000160E+02</rscale>
<asrwt>0</asrwt>
<pdfrwt beam="2">  1        4 0.12237360E-02 0.20000160E+02</pdfrwt>
<pdfrwt beam="1">  1       -4 0.19341605E-02 0.20000160E+02</pdfrwt>
<totfact> 0.12982551E+06</totfact>
</mgrwt>
</event>
<event>
 4    1  0.1154861E-006  0.2001321E+02  0.7818608E-02  0.1745065E+00
         -4   -1    0    0    0  501 -0.00000000000E+00  0.00000000000E+00  0.30888352379E+02  0.30920975287E+02  0.14200000000E+01 0. -1.
          4   -1    0    0  501    0  0.00000000000E+00 -0.00000000000E+00 -0.30501574737E+01  0.33645000541E+01  0.14200000000E+01 0.  1.
        -11    1    1    2    0    0  0.77289412467E+01  0.63525086332E+01  0.13571021950E+02  0.16860116719E+02  0.51100000000E-03 0.  1.
         11    1    1    2    0    0 -0.77289412467E+01 -0.63525086332E+01  0.14267172955E+02  0.17425358623E+02  0.51100000000E-03 0. -1.
<mgrwt>
<rscale>  0 0.20013214E+02</rscale>
<asrwt>0</asrwt>
<pdfrwt beam="2">  1        4 0.49594466E-03 0.20013214E+02</pdfrwt>
<pdfrwt beam="1">  1       -4 0.47787438E-02 0.20013214E+02</pdfrwt>
<totfact> 0.12220955E+06</totfact>
</mgrwt>
</event>
<event>
 5    1  0.1181550E-006  0.2000235E+02  0.7818608E-02  0.1745281E+00
          4   -1    0    0  501    0  0.00000000000E+00  0.00000000000E+00  0.15081450536E+02  0.15148153362E+02  0.14200000000E+01 0. -1.
         -4   -1    0    0    0  501 -0.00000000000E+00 -0.00000000000E+00 -0.64737581474E+01  0.66276650904E+01  0.14200000000E+01 0.  1.
       1023    2    1    2    0    0  0.00000000000E+00  0.00000000000E+00  0.86076923888E+01  0.21775818452E+02  0.20002347387E+02 0.  0.
        -11    1    3    3    0    0  0.52476032073E+01  0.85138769555E+01  0.43102643701E+01  0.10890446246E+02  0.51100000000E-03 0. -1.
         11    1    3    3    0    0 -0.52476032073E+01 -0.85138769555E+01  0.42974280187E+01  0.10885372206E+02  0.51100000000E-03 0.  1.
<mgrwt>
<rscale>  0 0.20002347E+02</rscale>
<asrwt>0</asrwt>
<pdfrwt beam="1">  1        4 0.23371931E-02 0.20002347E+02</pdfrwt>
<pdfrwt beam="2">  1       -4 0.10129328E-02 0.20002347E+02</pdfrwt>
<totfact> 0.12906171E+06</totfact>
</mgrwt>
</event>
<event>
 5    1  0.1154861E-006  0.2000820E+02  0.7818608E-02  0.1745165E+00
         -4   -1    0    0    0  501 -0.00000000000E+00  0.00000000000E+00  0.10281192297E+03  0.10282172876E+03  0.14200000000E+01 0.  1.
          4   -1    0    0  501    0  0.00000000000E+00 -0.00000000000E+00 -0.44041206117E+00  0.14867288871E+01  0.14200000000E+01 0. -1.
       1023    2    1    2    0    0  0.00000000000E+00  0.00000000000E+00  0.10237151091E+03  0.10430845765E+03  0.20008200582E+02 0.  0.
        -11    1    3    3    0    0  0.51841948139E+01  0.85556557821E+01  0.51618823710E+02  0.52579255255E+02  0.51100000000E-03 0. -1.
         11    1    3    3    0    0 -0.51841948139E+01 -0.85556557821E+01  0.50752687201E+02  0.51729202392E+02  0.51100000000E-03 0.  1.
<mgrwt>
<rscale>  0 0.20008201E+02</rscale>
<asrwt>0</asrwt>
<pdfrwt beam="2">  1        4 0.14899589E-03 0.20008201E+02</pdfrwt>
<pdfrwt beam="1">  1       -4 0.15898461E-01 0.20008201E+02</pdfrwt>
<totfact> 0.96723519E+05</totfact>
</mgrwt>
</event>
<event>
 5    1  0.1154861E-006  0.2000087E+02  0.7818608E-02  0.1745311E+00
          4   -1    0    0  501    0  0.00000000000E+00  0.00000000000E+00  0.43966934422E+02  0.43989859314E+02  0.14200000000E+01 0.  1.
         -4   -1    0    0    0  501 -0.00000000000E+00 -0.00000000000E+00 -0.20271179920E+01  0.24749964351E+01  0.14200000000E+01 0. -1.
       1023    2    1    2    0    0  0.00000000000E+00  0.00000000000E+00  0.41939816430E+02  0.46464855749E+02  0.20000865421E+02 0.  0.
        -11    1    3    3    0    0 -0.40787348891E+01  0.91306874757E+01  0.20840101582E+02  0.23115262626E+02  0.51100000000E-03 0.  1.
         11    1    3    3    0    0  0.40787348891E+01 -0.91306874757E+01  0.21099714849E+02  0.23349593124E+02  0.51100000000E-03 0. -1.
<mgrwt>
<rscale>  0 0.20000865E+02</rscale>
<asrwt>0</asrwt>
<pdfrwt beam="1">  1        4 0.68003592E-02 0.20000865E+02</pdfrwt>
<pdfrwt beam="2">  1       -4 0.34807996E-03 0.20000865E+02</pdfrwt>
<totfact> 0.11670498E+06</totfact>
</mgrwt>
</event>
<event>
 5    1  0.1154861E-006  0.2000028E+02  0.7818608E-02  0.1745322E+00
         -4   -1    0    0    0  501 -0.00000000000E+00  0.00000000000E+00  0.33730610073E+01  0.36597732934E+01  0.14200000000E+01 0. -1.
          4   -1    0    0  501    0  0.00000000000E+00 -0.00000000000E+00 -0.28133495634E+02  0.28169309125E+02  0.14200000000E+01 0.  1.
       1023    2    1    2    0    0  0.00000000000E+00  0.00000000000E+00 -0.24760434626E+02  0.31829082418E+02  0.20000284115E+02 0.  0.
        -11    1    3    3    0    0  0.99992750780E+01  0.12830047518E+00 -0.12333066482E+02  0.15877861702E+02  0.51100000000E-03 0.  1.
         11    1    3    3    0    0 -0.99992750780E+01 -0.12830047518E+00 -0.12427368144E+02  0.15951220717E+02  0.51100000000E-03 0. -1.
<mgrwt>
<rscale>  0 0.20000284E+02</rscale>
<asrwt>0</asrwt>
<pdfrwt beam="2">  1        4 0.43530396E-02 0.20000284E+02</pdfrwt>
<pdfrwt beam="1">  1       -4 0.54374216E-03 0.20000284E+02</pdfrwt>
<totfact> 0.12360846E+06</totfact>
</mgrwt>
</event>
<event>
 5    1  0.1154861E-006  0.2000049E+02  0.7818608E-02  0.1745318E+00
         -4   -1    0    0    0  501 -0.00000000000E+00  0.00000000000E+00  0.11196268993E+03  0.11197169435E+03  0.14200000000E+01 0. -1.
          4   -1    0    0  501    0  0.00000000000E+00 -0.00000000000E+00 -0.31397399759E+00  0.14542969680E+01  0.14200000000E+01 0.  1.
       1023    2    1    2    0    0  0.00000000000E+00  0.00000000000E+00  0.11164871593E+03  0.11342599132E+03  0.20000493441E+02 0.  0.
        -11    1    3    3    0    0  0.13385322318E+01 -0.99100659843E+01  0.55472112780E+02  0.56366269815E+02  0.51100000000E-03 0. -1.
         11    1    3    3    0    0 -0.13385322318E+01  0.99100659843E+01  0.56176603152E+02  0.57059721506E+02  0.51100000000E-03 0.  1.
<mgrwt>
<rscale>  0 0.20000493E+02</rscale>
<asrwt>0</asrwt>
<pdfrwt beam="2">  1        4 0.13671353E-03 0.20000493E+02</pdfrwt>
<pdfrwt beam="1">  1       -4 0.17313435E-01 0.20000493E+02</pdfrwt>
<totfact> 0.94341639E+05</totfact>
</mgrwt>
</event>
<event>
 5    1  0.1154861E-006  0.2000056E+02  0.7818608E-02  0.1745317E+00
         -4   -1    0    0    0  501 -0.00000000000E+00  0.00000000000E+00  0.13551860096E+02  0.13626052695E+02  0.14200000000E+01 0.  1.
          4   -1    0    0  501    0  0.00000000000E+00 -0.00000000000E+00 -0.72157492414E+01  0.73541442137E+01  0.14200000000E+01 0. -1.
       1023    2    1    2    0    0  0.00000000000E+00  0.00000000000E+00  0.63361108545E+01  0.20980196909E+02  0.20000559032E+02 0.  0.
        -11    1    3    3    0    0 -0.90201072877E+01 -0.43172883499E+01  0.32366491151E+01  0.10510814047E+02  0.51100000000E-03 0.  1.
         11    1    3    3    0    0  0.90201072877E+01  0.43172883499E+01  0.30994617394E+01  0.10469382862E+02  0.51100000000E-03 0. -1.
<mgrwt>
<rscale>  0 0.20000559E+02</rscale>
<asrwt>0</asrwt>
<pdfrwt beam="2">  1        4 0.11264682E-02 0.20000559E+02</pdfrwt>
<pdfrwt beam="1">  1       -4 0.21012544E-02 0.20000559E+02</pdfrwt>
<totfact> 0.12955180E+06</totfact>
</mgrwt>
</event>
<event>
 5    1  0.1154861E-006  0.2000522E+02  0.7818608E-02  0.1745224E+00
         -4   -1    0    0    0  501 -0.00000000000E+00  0.00000000000E+00  0.22583853422E+01  0.26677151936E+01  0.14200000000E+01 0. -1.
          4   -1    0    0  501    0  0.00000000000E+00 -0.00000000000E+00 -0.40198367430E+02  0.40223440232E+02  0.14200000000E+01 0.  1.
       1023    2    1    2    0    0  0.00000000000E+00  0.00000000000E+00 -0.37939982088E+02  0.42891155425E+02  0.20005223639E+02 0.  0.
        -11    1    3    3    0    0  0.86617719651E+01 -0.50004983748E+01 -0.18659552438E+02  0.21170974825E+02  0.51100000000E-03 0. -1.
         11    1    3    3    0    0 -0.86617719651E+01  0.50004983748E+01 -0.19280429650E+02  0.21720180600E+02  0.51100000000E-03 0.  1.
<mgrwt>
<rscale>  0 0.20005224E+02</rscale>
<asrwt>0</asrwt>
<pdfrwt beam="2">  1        4 0.62177793E-02 0.20005224E+02</pdfrwt>
<pdfrwt beam="1">  1       -4 0.38085952E-03 0.20005224E+02</pdfrwt>
<totfact> 0.11823839E+06</totfact>
</mgrwt>
</event>
<event>
 5    1  0.1154861E-006  0.2000060E+02  0.7818608E-02  0.1745316E+00
          4   -1    0    0  501    0  0.00000000000E+00  0.00000000000E+00  0.10884414863E+03  0.10885341102E+03  0.14200000000E+01 0.  1.
         -4   -1    0    0    0  501 -0.00000000000E+00 -0.00000000000E+00 -0.35519848357E+00  0.14637506491E+01  0.14200000000E+01 0. -1.
       1023    2    1    2    0    0  0.00000000000E+00  0.00000000000E+00  0.10848895014E+03  0.11031716167E+03  0.20000596370E+02 0.  0.
        -11    1    3    3    0    0  0.33206247564E+01  0.94328824141E+01  0.54178260397E+02  0.55093463490E+02  0.51100000000E-03 0. -1.
         11    1    3    3    0    0 -0.33206247564E+01 -0.94328824141E+01  0.54310689748E+02  0.55223698179E+02  0.51100000000E-03 0.  1.
<mgrwt>
<rscale>  0 0.20000596E+02</rscale>
<asrwt>0</asrwt>
<pdfrwt beam="1">  1        4 0.16831243E-01 0.20000596E+02</pdfrwt>
<pdfrwt beam="2">  1       -4 0.14063163E-03 0.20000596E+02</pdfrwt>
<totfact> 0.95162592E+05</totfact>
</mgrwt>
</event>
<event>
 5    1  0.1154861E-006  0.2000073E+02  0.7818608E-02  0.1745313E+00
          4   -1    0    0  501    0  0.00000000000E+00  0.00000000000E+00  0.37356647023E+02  0.37383625784E+02  0.14200000000E+01 0.  1.
         -4   -1    0    0    0  501 -0.00000000000E+00 -0.00000000000E+00 -0.24587903006E+01  0.28393748858E+01  0.14200000000E+01 0.  1.
       1023    2    1    2    0    0  0.00000000000E+00  0.00000000000E+00  0.34897856722E+02  0.40223000670E+02  0.20000734464E+02 0.  0.
        -11    1    3    3    0    0 -0.75514313193E+01  0.65558003422E+01  0.17310888565E+02  0.19991735699E+02  0.51100000000E-03 0.  1.
         11    1    3    3    0    0  0.75514313193E+01 -0.65558003422E+01  0.17586968158E+02  0.20231264971E+02  0.51100000000E-03 0. -1.
<mgrwt>
<rscale>  0 0.20000734E+02</rscale>
<asrwt>0</asrwt>
<pdfrwt beam="1">  1        4 0.57785278E-02 0.20000734E+02</pdfrwt>
<pdfrwt beam="2">  1       -4 0.40962644E-03 0.20000734E+02</pdfrwt>
<totfact> 0.11951354E+06</totfact>
</mgrwt>
</event>
<event>
 5    1  0.1154861E-006  0.2000529E+02  0.7818608E-02  0.1745223E+00
          4   -1    0    0  501    0  0.00000000000E+00  0.00000000000E+00  0.29480371976E+01  0.32722046571E+01  0.14200000000E+01 0. -1.
         -4   -1    0    0    0  501 -0.00000000000E+00 -0.00000000000E+00 -0.31829275951E+02  0.31860935447E+02  0.14200000000E+01 0.  1.
       1023    2    1    2    0    0  0.00000000000E+00  0.00000000000E+00 -0.28881238753E+02  0.35133140104E+02  0.20005288842E+02 0.  0.
        -11    1    3    3    0    0  0.96267426032E+01  0.27163776060E+01 -0.14447353892E+02  0.17572106169E+02  0.51100000000E-03 0.  1.
         11    1    3    3    0    0 -0.96267426032E+01 -0.27163776060E+01 -0.14433884861E+02  0.17561033936E+02  0.51100000000E-03 0. -1.
<mgrwt>
<rscale>  0 0.20005289E+02</rscale>
<asrwt>0</asrwt>
<pdfrwt beam="1">  1        4 0.48091551E-03 0.20005289E+02</pdfrwt>
<pdfrwt beam="2">  1       -4 0.49241828E-02 0.20005289E+02</pdfrwt>
<totfact> 0.12188897E+06</totfact>
</mgrwt>
</event>
<event>
 4    1  0.1154861E-006  0.2005114E+02  0.7818608E-02  0.1744313E+00
          4   -1    0    0  501    0  0.00000000000E+00  0.00000000000E+00  0.60516663179E+00  0.15435759302E+01  0.14200000000E+01 0. -1.
         -4   -1    0    0    0  501 -0.00000000000E+00 -0.00000000000E+00 -0.92608039746E+02  0.92618925850E+02  0.14200000000E+01 0.  1.
        -11    1    1    2    0    0  0.61250938664E+01  0.79351552290E+01 -0.46795016750E+02  0.47856630222E+02  0.51100000000E-03 0.  1.
         11    1    1    2    0    0 -0.61250938664E+01 -0.79351552290E+01 -0.45207856364E+02  0.46305871557E+02  0.51100000000E-03 0. -1.
<mgrwt>
<rscale>  0 0.20051137E+02</rscale>
<asrwt>0</asrwt>
<pdfrwt beam="1">  1        4 0.16612536E-03 0.20051137E+02</pdfrwt>
<pdfrwt beam="2">  1       -4 0.14320407E-01 0.20051137E+02</pdfrwt>
<totfact> 0.99199893E+05</totfact>
</mgrwt>
</event>
<event>
 5    1  0.1154861E-006  0.2000083E+02  0.7818608E-02  0.1745311E+00
          4   -1    0    0  501    0  0.00000000000E+00  0.00000000000E+00  0.67522564838E+00  0.15723643586E+01  0.14200000000E+01 0. -1.
         -4   -1    0    0    0  501 -0.00000000000E+00 -0.00000000000E+00 -0.88086485328E+02  0.88097930154E+02  0.14200000000E+01 0.  1.
       1023    2    1    2    0    0  0.00000000000E+00  0.00000000000E+00 -0.87411259680E+02  0.89670294513E+02  0.20000834963E+02 0.  0.
        -11    1    3    3    0    0 -0.53228332176E+01  0.84659240840E+01 -0.43986526940E+02  0.45108967806E+02  0.51100000000E-03 0. -1.
         11    1    3    3    0    0  0.53228332176E+01 -0.84659240840E+01 -0.43424732740E+02  0.44561326707E+02  0.51100000000E-03 0.  1.
<mgrwt>
<rscale>  0 0.20000835E+02</rscale>
<asrwt>0</asrwt>
<pdfrwt beam="1">  1        4 0.17377198E-03 0.20000835E+02</pdfrwt>
<pdfrwt beam="2">  1       -4 0.13621653E-01 0.20000835E+02</pdfrwt>
<totfact> 0.10104918E+06</totfact>
</mgrwt>
</event>
<event>
 5    1  0.1154861E-006  0.2000243E+02  0.7818608E-02  0.1745280E+00
          4   -1    0    0  501    0  0.00000000000E+00  0.00000000000E+00  0.67207672049E+02  0.67222671639E+02  0.14200000000E+01 0. -1.
         -4   -1    0    0    0  501 -0.00000000000E+00 -0.00000000000E+00 -0.11308758937E+01  0.18152906894E+01  0.14200000000E+01 0.  1.
       1023    2    1    2    0    0  0.00000000000E+00  0.00000000000E+00  0.66076796155E+02  0.69037962328E+02  0.20002431159E+02 0.  0.
        -11    1    3    3    0    0 -0.75350898103E+01  0.65761970188E+01  0.33104530009E+02  0.34582276574E+02  0.51100000000E-03 0.  1.
         11    1    3    3    0    0  0.75350898103E+01 -0.65761970188E+01  0.32972266146E+02  0.34455685754E+02  0.51100000000E-03 0. -1.
<mgrwt>
<rscale>  0 0.20002431E+02</rscale>
<asrwt>0</asrwt>
<pdfrwt beam="1">  1        4 0.10393441E-01 0.20002431E+02</pdfrwt>
<pdfrwt beam="2">  1       -4 0.22778205E-03 0.20002431E+02</pdfrwt>
<totfact> 0.10782264E+06</totfact>
</mgrwt>
</event>
<event>
 5    1  0.1182999E-006  0.2000099E+02  0.7818608E-02  0.1745308E+00
          4   -1    0    0  501    0  0.00000000000E+00  0.00000000000E+00  0.27672600568E+02  0.27709009766E+02  0.14200000000E+01 0. -1.
         -4   -1    0    0    0  501 -0.00000000000E+00 -0.00000000000E+00 -0.34341614669E+01  0.37161626688E+01  0.14200000000E+01 0.  1.
       1023    2    1    2    0    0  0.00000000000E+00  0.00000000000E+00  0.24238439101E+02  0.31425172435E+02  0.20000988288E+02 0.  0.
        -11    1    3    3    0    0 -0.43689870588E+01  0.89955132294E+01  0.12039464823E+02  0.15651070879E+02  0.51100000000E-03 0.  1.
         11    1    3    3    0    0  0.43689870588E+01 -0.89955132294E+01  0.12198974278E+02  0.15774101556E+02  0.51100000000E-03 0. -1.
<mgrwt>
<rscale>  0 0.20000988E+02</rscale>
<asrwt>0</asrwt>
<pdfrwt beam="1">  1        4 0.42818162E-02 0.20000988E+02</pdfrwt>
<pdfrwt beam="2">  1       -4 0.55282565E-03 0.20000988E+02</pdfrwt>
<totfact> 0.12380683E+06</totfact>
</mgrwt>
</event>
<event>
 5    1  0.1169746E-006  0.2000077E+02  0.7818608E-02  0.1745313E+00
          4   -1    0    0  501    0  0.00000000000E+00  0.00000000000E+00  0.12219536371E+02  0.12301766911E+02  0.14200000000E+01 0. -1.
         -4   -1    0    0    0  501 -0.00000000000E+00 -0.00000000000E+00 -0.80119305228E+01  0.81367948666E+01  0.14200000000E+01 0.  1.
       1023    2    1    2    0    0  0.00000000000E+00  0.00000000000E+00  0.42076058485E+01  0.20438561777E+02  0.20000771499E+02 0.  0.
        -11    1    3    3    0    0 -0.84724848713E+01 -0.53124721942E+01  0.21533847307E+01  0.10229488099E+02  0.51100000000E-03 0. -1.
         11    1    3    3    0    0  0.84724848713E+01  0.53124721942E+01  0.20542211178E+01  0.10209073678E+02  0.51100000000E-03 0.  1.
<mgrwt>
<rscale>  0 0.20000771E+02</rscale>
<asrwt>0</asrwt>
<pdfrwt beam="1">  1        4 0.18958591E-02 0.20000771E+02</pdfrwt>
<pdfrwt beam="2">  1       -4 0.12485351E-02 0.20000771E+02</pdfrwt>
<totfact> 0.12986939E+06</totfact>
</mgrwt>
</event>
<event>
 5    1  0.1154861E-006  0.2001215E+02  0.7818608E-02  0.1745087E+00
          4   -1    0    0  501    0  0.00000000000E+00  0.00000000000E+00  0.29121603639E+01  0.32399194411E+01  0.14200000000E+01 0. -1.
         -4   -1    0    0    0  501 -0.00000000000E+00 -0.00000000000E+00 -0.32204595687E+02  0.32235886577E+02  0.14200000000E+01 0.  1.
       1023    2    1    2    0    0  0.00000000000E+00  0.00000000000E+00 -0.29292435323E+02  0.35475806018E+02  0.20012147447E+02 0.  0.
        -11    1    3    3    0    0 -0.74978087865E+01 -0.66199400352E+01 -0.15150019094E+02  0.18153892737E+02  0.51100000000E-03 0.  1.
         11    1    3    3    0    0  0.74978087865E+01  0.66199400352E+01 -0.14142416229E+02  0.17321913281E+02  0.51100000000E-03 0. -1.
<mgrwt>
<rscale>  0 0.20012147E+02</rscale>
<asrwt>0</asrwt>
<pdfrwt beam="1">  1        4 0.47564392E-03 0.20012147E+02</pdfrwt>
<pdfrwt beam="2">  1       -4 0.49821722E-02 0.20012147E+02</pdfrwt>
<totfact> 0.12163628E+06</totfact>
</mgrwt>
</event>
<event>
 5    1  0.1154861E-006  0.2000121E+02  0.7818608E-02  0.1745304E+00
         -4   -1    0    0    0  501 -0.00000000000E+00  0.00000000000E+00  0.42968447098E+00  0.14835864466E+01  0.14200000000E+01 0. -1.
          4   -1    0    0  501    0  0.00000000000E+00 -0.00000000000E+00 -0.10348425048E+03  0.10349399257E+03  0.14200000000E+01 0.  1.
       1023    2    1    2    0    0  0.00000000000E+00  0.00000000000E+00 -0.10305456601E+03  0.10497757901E+03  0.20001212968E+02 0.  0.
        -11    1    3    3    0    0 -0.99744749369E+01  0.71479439071E+00 -0.52078968957E+02  0.53030369498E+02  0.51100000000E-03 0. -1.
         11    1    3    3    0    0  0.99744749369E+01 -0.71479439071E+00 -0.50975597053E+02  0.51947209516E+02  0.51100000000E-03 0.  1.
<mgrwt>
<rscale>  0 0.20001213E+02</rscale>
<asrwt>0</asrwt>
<pdfrwt beam="2">  1        4 0.16002464E-01 0.20001213E+02</pdfrwt>
<pdfrwt beam="1">  1       -4 0.14792416E-03 0.20001213E+02</pdfrwt>
<totfact> 0.96605927E+05</totfact>
</mgrwt>
</event>
<event>
 5    1  0.1154861E-006  0.2000167E+02  0.7818608E-02  0.1745295E+00
         -4   -1    0    0    0  501 -0.00000000000E+00  0.00000000000E+00  0.66431592344E+02  0.66446767125E+02  0.14200000000E+01 0. -1.
          4   -1    0    0  501    0  0.00000000000E+00 -0.00000000000E+00 -0.11518910710E+01  0.18284564636E+01  0.14200000000E+01 0.  1.
       1023    2    1    2    0    0  0.00000000000E+00  0.00000000000E+00  0.65279701273E+02  0.68275223589E+02  0.20001668875E+02 0.  0.
        -11    1    3    3    0    0 -0.99374557218E+01 -0.11224974247E+01  0.32433272078E+02  0.33940096709E+02  0.51100000000E-03 0.  1.
         11    1    3    3    0    0  0.99374557218E+01  0.11224974247E+01  0.32846429195E+02  0.34335126879E+02  0.51100000000E-03 0. -1.
<mgrwt>
<rscale>  0 0.20001669E+02</rscale>
<asrwt>0</asrwt>
<pdfrwt beam="2">  1        4 0.23042476E-03 0.20001669E+02</pdfrwt>
<pdfrwt beam="1">  1       -4 0.10273457E-01 0.20001669E+02</pdfrwt>
<totfact> 0.10810305E+06</totfact>
</mgrwt>
</event>
<event>
 5    1  0.1154861E-006  0.2000055E+02  0.7818608E-02  0.1745317E+00
         -4   -1    0    0    0  501 -0.00000000000E+00  0.00000000000E+00  0.50708649379E+02  0.50728527692E+02  0.14200000000E+01 0.  1.
          4   -1    0    0  501    0  0.00000000000E+00 -0.00000000000E+00 -0.16935742043E+01  0.22101116681E+01  0.14200000000E+01 0. -1.
       1023    2    1    2    0    0  0.00000000000E+00  0.00000000000E+00  0.49015075175E+02  0.52938639360E+02  0.20000548567E+02 0.  0.
        -11    1    3    3    0    0  0.28007565009E+01 -0.95999815917E+01  0.24401599021E+02  0.26371232785E+02  0.51100000000E-03 0. -1.
         11    1    3    3    0    0 -0.28007565009E+01  0.95999815917E+01  0.24613476154E+02  0.26567406576E+02  0.51100000000E-03 0.  1.
<mgrwt>
<rscale>  0 0.20000549E+02</rscale>
<asrwt>0</asrwt>
<pdfrwt beam="2">  1        4 0.30181268E-03 0.20000549E+02</pdfrwt>
<pdfrwt beam="1">  1       -4 0.78425922E-02 0.20000549E+02</pdfrwt>
<totfact> 0.11397743E+06</totfact>
</mgrwt>
</event>
<event>
 5    1  0.1229469E-006  0.2000101E+02  0.7818608E-02  0.1745308E+00
         -4   -1    0    0    0  501 -0.00000000000E+00  0.00000000000E+00  0.98508435365E+01  0.99526638836E+01  0.14200000000E+01 0.  1.
          4   -1    0    0  501    0  0.00000000000E+00 -0.00000000000E+00 -0.99477376930E+01  0.10048576278E+02  0.14200000000E+01 0. -1.
       1023    2    1    2    0    0  0.00000000000E+00  0.00000000000E+00 -0.96894156514E-01  0.20001240161E+02  0.20001005462E+02 0.  0.
        -11    1    3    3    0    0 -0.14218196865E+01  0.98986373635E+01 -0.12235154269E+00  0.10000978104E+02  0.51100000000E-03 0.  1.
         11    1    3    3    0    0  0.14218196865E+01 -0.98986373635E+01  0.25457386179E-01  0.10000262057E+02  0.51100000000E-03 0. -1.
<mgrwt>
<rscale>  0 0.20001005E+02</rscale>
<asrwt>0</asrwt>
<pdfrwt beam="2">  1        4 0.15460103E-02 0.20001005E+02</pdfrwt>
<pdfrwt beam="1">  1       -4 0.15311035E-02 0.20001005E+02</pdfrwt>
<totfact> 0.13012635E+06</totfact>
</mgrwt>
</event>
<event>
 5    1  0.1185860E-006  0.2000078E+02  0.7818608E-02  0.1745313E+00
          4   -1    0    0  501    0  0.00000000000E+00  0.00000000000E+00  0.16713558984E+02  0.16773772799E+02  0.14200000000E+01 0. -1.
         -4   -1    0    0    0  501 -0.00000000000E+00 -0.00000000000E+00 -0.58272467232E+01  0.59977666154E+01  0.14200000000E+01 0.  1.
       1023    2    1    2    0    0  0.00000000000E+00  0.00000000000E+00  0.10886312261E+02  0.22771539415E+02  0.20000780302E+02 0.  0.
        -11    1    3    3    0    0  0.57245505322E+01 -0.81996305854E+01  0.53769411484E+01  0.11354114536E+02  0.51100000000E-03 0. -1.
         11    1    3    3    0    0 -0.57245505322E+01  0.81996305854E+01  0.55093711127E+01  0.11417424878E+02  0.51100000000E-03 0.  1.
<mgrwt>
<rscale>  0 0.20000780E+02</rscale>
<asrwt>0</asrwt>
<pdfrwt beam="1">  1        4 0.25890655E-02 0.20000780E+02</pdfrwt>
<pdfrwt beam="2">  1       -4 0.91424825E-03 0.20000780E+02</pdfrwt>
<totfact> 0.12850652E+06</totfact>
</mgrwt>
</event>
<event>
 5    1  0.1154861E-006  0.2000865E+02  0.7818608E-02  0.1745156E+00
         -4   -1    0    0    0  501 -0.00000000000E+00  0.00000000000E+00  0.72168143503E+02  0.72182112304E+02  0.14200000000E+01 0.  1.
          4   -1    0    0  501    0  0.00000000000E+00 -0.00000000000E+00 -0.10054840173E+01  0.17399419844E+01  0.14200000000E+01 0. -1.
       1023    2    1    2    0    0  0.00000000000E+00  0.00000000000E+00  0.71162659485E+02  0.73922054288E+02  0.20008648259E+02 0.  0.
        -11    1    3    3    0    0  0.91784159763E+01 -0.39803462125E+01  0.35562776323E+02  0.36943166294E+02  0.51100000000E-03 0.  1.
         11    1    3    3    0    0 -0.91784159763E+01  0.39803462125E+01  0.35599883163E+02  0.36978887994E+02  0.51100000000E-03 0. -1.
<mgrwt>
<rscale>  0 0.20008648E+02</rscale>
<asrwt>0</asrwt>
<pdfrwt beam="2">  1        4 0.21226114E-03 0.20008648E+02</pdfrwt>
<pdfrwt beam="1">  1       -4 0.11160363E-01 0.20008648E+02</pdfrwt>
<totfact> 0.10605268E+06</totfact>
</mgrwt>
</event>
<event>
 5    1  0.1154861E-006  0.2000118E+02  0.7818608E-02  0.1745305E+00
         -4   -1    0    0    0  501 -0.00000000000E+00  0.00000000000E+00  0.64985985101E+02  0.65001497364E+02  0.14200000000E+01 0.  1.
          4   -1    0    0  501    0  0.00000000000E+00 -0.00000000000E+00 -0.11923004341E+01  0.18541791513E+01  0.14200000000E+01 0. -1.
       1023    2    1    2    0    0  0.00000000000E+00  0.00000000000E+00  0.63793684667E+02  0.66855676515E+02  0.20001181938E+02 0.  0.
        -11    1    3    3    0    0 -0.59686317016E+01  0.80240301006E+01  0.32053481834E+02  0.33577303665E+02  0.51100000000E-03 0.  1.
         11    1    3    3    0    0  0.59686317016E+01 -0.80240301006E+01  0.31740202832E+02  0.33278372850E+02  0.51100000000E-03 0. -1.
<mgrwt>
<rscale>  0 0.20001182E+02</rscale>
<asrwt>0</asrwt>
<pdfrwt beam="2">  1        4 0.23553789E-03 0.20001182E+02</pdfrwt>
<pdfrwt beam="1">  1       -4 0.10049949E-01 0.20001182E+02</pdfrwt>
<totfact> 0.10861945E+06</totfact>
</mgrwt>
</event>
<event>
 5    1  0.1154861E-006  0.2000027E+02  0.7818608E-02  0.1745323E+00
          4   -1    0    0  501    0  0.00000000000E+00  0.00000000000E+00  0.26941894771E+02  0.26979290092E+02  0.14200000000E+01 0.  1.
         -4   -1    0    0    0  501 -0.00000000000E+00 -0.00000000000E+00 -0.35344353574E+01  0.38090199915E+01  0.14200000000E+01 0. -1.
       1023    2    1    2    0    0  0.00000000000E+00  0.00000000000E+00  0.23407459414E+02  0.30788310084E+02  0.20000272038E+02 0.  0.
        -11    1    3    3    0    0  0.98010201489E+01  0.19855609080E+01  0.11678338702E+02  0.15374850997E+02  0.51100000000E-03 0.  1.
         11    1    3    3    0    0 -0.98010201489E+01 -0.19855609080E+01  0.11729120712E+02  0.15413459087E+02  0.51100000000E-03 0. -1.
<mgrwt>
<rscale>  0 0.20000272E+02</rscale>
<asrwt>0</asrwt>
<pdfrwt beam="1">  1        4 0.41689053E-02 0.20000272E+02</pdfrwt>
<pdfrwt beam="2">  1       -4 0.56775775E-03 0.20000272E+02</pdfrwt>
<totfact> 0.12414426E+06</totfact>
</mgrwt>
</event>
<event>
 5    1  0.1154861E-006  0.2000037E+02  0.7818608E-02  0.1745321E+00
         -4   -1    0    0    0  501 -0.00000000000E+00  0.00000000000E+00  0.55627328545E+01  0.57411145965E+01  0.14200000000E+01 0. -1.
          4   -1    0    0  501    0  0.00000000000E+00 -0.00000000000E+00 -0.17486130226E+02  0.17543692607E+02  0.14200000000E+01 0.  1.
       1023    2    1    2    0    0  0.00000000000E+00  0.00000000000E+00 -0.11923397371E+02  0.23284807203E+02  0.20000371037E+02 0.  0.
        -11    1    3    3    0    0 -0.99698273047E+01  0.77779702244E+00 -0.59199577795E+01  0.11621029432E+02  0.51100000000E-03 0.  1.
         11    1    3    3    0    0  0.99698273047E+01 -0.77779702244E+00 -0.60034395919E+01  0.11663777771E+02  0.51100000000E-03 0. -1.
<mgrwt>
<rscale>  0 0.20000371E+02</rscale>
<asrwt>0</asrwt>
<pdfrwt beam="2">  1        4 0.27083234E-02 0.20000371E+02</pdfrwt>
<pdfrwt beam="1">  1       -4 0.87395461E-03 0.20000371E+02</pdfrwt>
<totfact> 0.12821826E+06</totfact>
</mgrwt>
</event>
<event>
 5    1  0.1154861E-006  0.2000020E+02  0.7818608E-02  0.1745324E+00
          4   -1    0    0  501    0  0.00000000000E+00  0.00000000000E+00  0.26872548137E+01  0.30393648076E+01  0.14200000000E+01 0. -1.
         -4   -1    0    0    0  501 -0.00000000000E+00 -0.00000000000E+00 -0.34557727405E+02  0.34586889473E+02  0.14200000000E+01 0.  1.
       1023    2    1    2    0    0  0.00000000000E+00  0.00000000000E+00 -0.31870472591E+02  0.37626254280E+02  0.20000199698E+02 0.  0.
        -11    1    3    3    0    0 -0.31607580676E+01 -0.94874417816E+01 -0.15949011030E+02  0.18824794719E+02  0.51100000000E-03 0. -1.
         11    1    3    3    0    0  0.31607580676E+01  0.94874417816E+01 -0.15921461562E+02  0.18801459561E+02  0.51100000000E-03 0.  1.
<mgrwt>
<rscale>  0 0.20000200E+02</rscale>
<asrwt>0</asrwt>
<pdfrwt beam="1">  1        4 0.44275246E-03 0.20000200E+02</pdfrwt>
<pdfrwt beam="2">  1       -4 0.53459018E-02 0.20000200E+02</pdfrwt>
<totfact> 0.12074315E+06</totfact>
</mgrwt>
</event>
<event>
 5    1  0.1154861E-006  0.2000061E+02  0.7818608E-02  0.1745316E+00
          4   -1    0    0  501    0  0.00000000000E+00  0.00000000000E+00  0.28715248833E+02  0.28750337659E+02  0.14200000000E+01 0.  1.
         -4   -1    0    0    0  501 -0.00000000000E+00 -0.00000000000E+00 -0.32990651984E+01  0.35916891824E+01  0.14200000000E+01 0. -1.
       1023    2    1    2    0    0  0.00000000000E+00  0.00000000000E+00  0.25416183634E+02  0.32342026842E+02  0.20000607733E+02 0.  0.
        -11    1    3    3    0    0  0.95849838952E+01 -0.28519632727E+01  0.12743013521E+02  0.16198456860E+02  0.51100000000E-03 0. -1.
         11    1    3    3    0    0 -0.95849838952E+01  0.28519632727E+01  0.12673170113E+02  0.16143569982E+02  0.51100000000E-03 0.  1.
<mgrwt>
<rscale>  0 0.20000608E+02</rscale>
<asrwt>0</asrwt>
<pdfrwt beam="1">  1        4 0.44429392E-02 0.20000608E+02</pdfrwt>
<pdfrwt beam="2">  1       -4 0.53275718E-03 0.20000608E+02</pdfrwt>
<totfact> 0.12334271E+06</totfact>
</mgrwt>
</event>
<event>
 5    1  0.1172755E-006  0.2000086E+02  0.7818608E-02  0.1745311E+00
         -4   -1    0    0    0  501 -0.00000000000E+00  0.00000000000E+00  0.39373793627E+02  0.39399391170E+02  0.14200000000E+01 0. -1.
          4   -1    0    0  501    0  0.00000000000E+00 -0.00000000000E+00 -0.23129338539E+01  0.27140491913E+01  0.14200000000E+01 0.  1.
       1023    2    1    2    0    0  0.00000000000E+00  0.00000000000E+00  0.37060859773E+02  0.42113440361E+02  0.20000863280E+02 0.  0.
        -11    1    3    3    0    0  0.95084040346E+01  0.30979453310E+01  0.18445677406E+02  0.20982135920E+02  0.51100000000E-03 0.  1.
         11    1    3    3    0    0 -0.95084040346E+01 -0.30979453310E+01  0.18615182367E+02  0.21131304441E+02  0.51100000000E-03 0. -1.
<mgrwt>
<rscale>  0 0.20000863E+02</rscale>
<asrwt>0</asrwt>
<pdfrwt beam="2">  1        4 0.38866007E-03 0.20000863E+02</pdfrwt>
<pdfrwt beam="1">  1       -4 0.60903304E-02 0.20000863E+02</pdfrwt>
<totfact> 0.11864324E+06</totfact>
</mgrwt>
</event>
<event>
 5    1  0.1154861E-006  0.2000030E+02  0.7818608E-02  0.1745322E+00
         -4   -1    0    0    0  501 -0.00000000000E+00  0.00000000000E+00  0.33917680537E+02  0.33947392433E+02  0.14200000000E+01 0.  1.
          4   -1    0    0  501    0  0.00000000000E+00 -0.00000000000E+00 -0.27445298762E+01  0.30901204251E+01  0.14200000000E+01 0. -1.
       1023    2    1    2    0    0  0.00000000000E+00  0.00000000000E+00  0.31173150661E+02  0.37037512859E+02  0.20000300913E+02 0.  0.
        -11    1    3    3    0    0  0.31866317794E+01 -0.94787606842E+01  0.15657881915E+02  0.18578772632E+02  0.51100000000E-03 0.  1.
         11    1    3    3    0    0 -0.31866317794E+01  0.94787606842E+01  0.15515268746E+02  0.18458740226E+02  0.51100000000E-03 0. -1.
<mgrwt>
<rscale>  0 0.20000301E+02</rscale>
<asrwt>0</asrwt>
<pdfrwt beam="2">  1        4 0.45110479E-03 0.20000301E+02</pdfrwt>
<pdfrwt beam="1">  1       -4 0.52469741E-02 0.20000301E+02</pdfrwt>
<totfact> 0.12102423E+06</totfact>
</mgrwt>
</event>
<event>
 5    1  0.1154861E-006  0.2000507E+02  0.7818608E-02  0.1745227E+00
         -4   -1    0    0    0  501 -0.00000000000E+00  0.00000000000E+00  0.70229961610E+02  0.70244315840E+02  0.14200000000E+01 0. -1.
          4   -1    0    0  501    0  0.00000000000E+00 -0.00000000000E+00 -0.10525824267E+01  0.17675773717E+01  0.14200000000E+01 0.  1.
       1023    2    1    2    0    0  0.00000000000E+00  0.00000000000E+00  0.69177379184E+02  0.72011893212E+02  0.20005073686E+02 0.  0.
        -11    1    3    3    0    0 -0.99912974088E+01 -0.45644908910E+00  0.34128080074E+02  0.35563467484E+02  0.51100000000E-03 0.  1.
         11    1    3    3    0    0  0.99912974088E+01  0.45644908910E+00  0.35049299109E+02  0.36448425727E+02  0.51100000000E-03 0. -1.
<mgrwt>
<rscale>  0 0.20005074E+02</rscale>
<asrwt>0</asrwt>
<pdfrwt beam="2">  1        4 0.21803951E-03 0.20005074E+02</pdfrwt>
<pdfrwt beam="1">  1       -4 0.10860715E-01 0.20005074E+02</pdfrwt>
<totfact> 0.10674910E+06</totfact>
</mgrwt>
</event>
<event>
 4    1  0.1154861E-006  0.2001488E+02  0.7818608E-02  0.1745032E+00
          4   -1    0    0  501    0  0.00000000000E+00  0.00000000000E+00  0.67743468402E+01  0.69215731674E+01  0.14200000000E+01 0.  1.
         -4   -1    0    0    0  501 -0.00000000000E+00 -0.00000000000E+00 -0.14442203239E+02  0.14511844625E+02  0.14200000000E+01 0. -1.
        -11    1    1    2    0    0  0.78463655903E+01 -0.62051052672E+01 -0.35309266005E+01  0.10608309350E+02  0.51100000000E-03 0.  1.
         11    1    1    2    0    0 -0.78463655903E+01  0.62051052672E+01 -0.41369297987E+01  0.10825108442E+02  0.51100000000E-03 0. -1.
<mgrwt>
<rscale>  0 0.20014879E+02</rscale>
<asrwt>0</asrwt>
<pdfrwt beam="1">  1        4 0.10588893E-02 0.20014879E+02</pdfrwt>
<pdfrwt beam="2">  1       -4 0.22385595E-02 0.20014879E+02</pdfrwt>
<totfact> 0.12909663E+06</totfact>
</mgrwt>
</event>
<event>
 5    1  0.1188549E-006  0.2000327E+02  0.7818608E-02  0.1745263E+00
         -4   -1    0    0    0  501 -0.00000000000E+00  0.00000000000E+00  0.17686079388E+02  0.17742993100E+02  0.14200000000E+01 0. -1.
          4   -1    0    0  501    0  0.00000000000E+00 -0.00000000000E+00 -0.54996875904E+01  0.56800496117E+01  0.14200000000E+01 0.  1.
       1023    2    1    2    0    0  0.00000000000E+00  0.00000000000E+00  0.12186391798E+02  0.23423042711E+02  0.20003269353E+02 0.  0.
        -11    1    3    3    0    0 -0.98202877324E+01  0.18884199245E+01  0.58954630342E+01  0.11608646157E+02  0.51100000000E-03 0. -1.
         11    1    3    3    0    0  0.98202877324E+01 -0.18884199245E+01  0.62909287638E+01  0.11814396554E+02  0.51100000000E-03 0.  1.
<mgrwt>
<rscale>  0 0.20003269E+02</rscale>
<asrwt>0</asrwt>
<pdfrwt beam="2">  1        4 0.86435777E-03 0.20003269E+02</pdfrwt>
<pdfrwt beam="1">  1       -4 0.27391872E-02 0.20003269E+02</pdfrwt>
<totfact> 0.12810172E+06</totfact>
</mgrwt>
</event>
<event>
 5    1  0.1154861E-006  0.2000101E+02  0.7818608E-02  0.1745308E+00
         -4   -1    0    0    0  501 -0.00000000000E+00  0.00000000000E+00  0.44100594438E+02  0.44123449885E+02  0.14200000000E+01 0. -1.
          4   -1    0    0  501    0  0.00000000000E+00 -0.00000000000E+00 -0.20196549878E+01  0.24688876584E+01  0.14200000000E+01 0.  1.
       1023    2    1    2    0    0  0.00000000000E+00  0.00000000000E+00  0.42080939450E+02  0.46592337543E+02  0.20001011294E+02 0.  0.
        -11    1    3    3    0    0  0.33250777388E+01  0.94312937775E+01  0.20881300896E+02  0.23152411789E+02  0.51100000000E-03 0. -1.
         11    1    3    3    0    0 -0.33250777388E+01 -0.94312937775E+01  0.21199638554E+02  0.23439925754E+02  0.51100000000E-03 0.  1.
<mgrwt>
<rscale>  0 0.20001011E+02</rscale>
<asrwt>0</asrwt>
<pdfrwt beam="2">  1        4 0.34703063E-03 0.20001011E+02</pdfrwt>
<pdfrwt beam="1">  1       -4 0.68210211E-02 0.20001011E+02</pdfrwt>
<totfact> 0.11664777E+06</totfact>
</mgrwt>
</event>
<event>
 5    1  0.1154861E-006  0.2000047E+02  0.7818608E-02  0.1745319E+00
          4   -1    0    0  501    0  0.00000000000E+00  0.00000000000E+00  0.34675413697E+01  0.37470312449E+01  0.14200000000E+01 0.  1.
         -4   -1    0    0    0  501 -0.00000000000E+00 -0.00000000000E+00 -0.27424413923E+02  0.27461152180E+02  0.14200000000E+01 0. -1.
       1023    2    1    2    0    0  0.00000000000E+00  0.00000000000E+00 -0.23956872554E+02  0.31208183425E+02  0.20000474247E+02 0.  0.
        -11    1    3    3    0    0 -0.95228428100E+01 -0.30528990248E+01 -0.11972468641E+02  0.15599510674E+02  0.51100000000E-03 0.  1.
         11    1    3    3    0    0  0.95228428100E+01  0.30528990248E+01 -0.11984403912E+02  0.15608672751E+02  0.51100000000E-03 0. -1.
<mgrwt>
<rscale>  0 0.20000474E+02</rscale>
<asrwt>0</asrwt>
<pdfrwt beam="1">  1        4 0.55779316E-03 0.20000474E+02</pdfrwt>
<pdfrwt beam="2">  1       -4 0.42434657E-02 0.20000474E+02</pdfrwt>
<totfact> 0.12392504E+06</totfact>
</mgrwt>
</event>
<event>
 5    1  0.1154861E-006  0.2000167E+02  0.7818608E-02  0.1745295E+00
         -4   -1    0    0    0  501 -0.00000000000E+00  0.00000000000E+00  0.53914919256E+02  0.53933615848E+02  0.14200000000E+01 0.  1.
          4   -1    0    0  501    0  0.00000000000E+00 -0.00000000000E+00 -0.15614565975E+01  0.21105797085E+01  0.14200000000E+01 0. -1.
       1023    2    1    2    0    0  0.00000000000E+00  0.00000000000E+00  0.52353462659E+02  0.56044195556E+02  0.20001670010E+02 0.  0.
        -11    1    3    3    0    0 -0.79648735611E+01 -0.60471238817E+01  0.26453864310E+02  0.28280980451E+02  0.51100000000E-03 0. -1.
         11    1    3    3    0    0  0.79648735611E+01  0.60471238817E+01  0.25899598349E+02  0.27763215105E+02  0.51100000000E-03 0.  1.
<mgrwt>
<rscale>  0 0.20001670E+02</rscale>
<asrwt>0</asrwt>
<pdfrwt beam="2">  1        4 0.28390257E-03 0.20001670E+02</pdfrwt>
<pdfrwt beam="1">  1       -4 0.83382802E-02 0.20001670E+02</pdfrwt>
<totfact> 0.11271340E+06</totfact>
</mgrwt>
</event>
<event>
 5    1  0.1154861E-006  0.2000304E+02  0.7818608E-02  0.1745268E+00
          4   -1    0    0  501    0  0.00000000000E+00  0.00000000000E+00  0.42388958989E+02  0.42412736815E+02  0.14200000000E+01 0. -1.
         -4   -1    0    0    0  501 -0.00000000000E+00 -0.00000000000E+00 -0.21194626366E+01  0.25511804852E+01  0.14200000000E+01 0.  1.
       1023    2    1    2    0    0  0.00000000000E+00  0.00000000000E+00  0.40269496352E+02  0.44963917301E+02  0.20003037833E+02 0.  0.
        -11    1    3    3    0    0 -0.97854967189E+01 -0.20674310144E+01  0.20163476642E+02  0.22507687744E+02  0.51100000000E-03 0.  1.
         11    1    3    3    0    0  0.97854967189E+01  0.20674310144E+01  0.20106019710E+02  0.22456229556E+02  0.51100000000E-03 0. -1.
<mgrwt>
<rscale>  0 0.20003038E+02</rscale>
<asrwt>0</asrwt>
<pdfrwt beam="1">  1        4 0.65564158E-02 0.20003038E+02</pdfrwt>
<pdfrwt beam="2">  1       -4 0.36110934E-03 0.20003038E+02</pdfrwt>
<totfact> 0.11733802E+06</totfact>
</mgrwt>
</event>
<event>
 5    1  0.1154861E-006  0.2000039E+02  0.7818608E-02  0.1745320E+00
         -4   -1    0    0    0  501 -0.00000000000E+00  0.00000000000E+00  0.11471836495E+03  0.11472715309E+03  0.14200000000E+01 0.  1.
          4   -1    0    0  501    0  0.00000000000E+00 -0.00000000000E+00 -0.27869021449E+00  0.14470895742E+01  0.14200000000E+01 0. -1.
       1023    2    1    2    0    0  0.00000000000E+00  0.00000000000E+00  0.11443967473E+03  0.11617424266E+03  0.20000387638E+02 0.  0.
        -11    1    3    3    0    0 -0.95272038652E+01  0.30391209549E+01  0.57205037677E+02  0.58072542613E+02  0.51100000000E-03 0.  1.
         11    1    3    3    0    0  0.95272038652E+01 -0.30391209549E+01  0.57234637055E+02  0.58101700050E+02  0.51100000000E-03 0. -1.
<mgrwt>
<rscale>  0 0.20000388E+02</rscale>
<asrwt>0</asrwt>
<pdfrwt beam="2">  1        4 0.13342850E-03 0.20000388E+02</pdfrwt>
<pdfrwt beam="1">  1       -4 0.17739505E-01 0.20000388E+02</pdfrwt>
<totfact> 0.93628885E+05</totfact>
</mgrwt>
</event>
<event>
 5    1  0.1154861E-006  0.2000790E+02  0.7818608E-02  0.1745171E+00
          4   -1    0    0  501    0  0.00000000000E+00  0.00000000000E+00  0.11150592836E+02  0.11240645915E+02  0.14200000000E+01 0. -1.
         -4   -1    0    0    0  501 -0.00000000000E+00 -0.00000000000E+00 -0.87918737683E+01  0.89058095846E+01  0.14200000000E+01 0.  1.
       1023    2    1    2    0    0  0.00000000000E+00  0.00000000000E+00  0.23587190676E+01  0.20146455500E+02  0.20007901279E+02 0.  0.
        -11    1    3    3    0    0  0.54233633023E+01  0.84043234534E+01  0.99504573511E+00  0.10051648546E+02  0.51100000000E-03 0.  1.
         11    1    3    3    0    0 -0.54233633023E+01 -0.84043234534E+01  0.13636733325E+01  0.10094806954E+02  0.51100000000E-03 0. -1.
<mgrwt>
<rscale>  0 0.20007901E+02</rscale>
<asrwt>0</asrwt>
<pdfrwt beam="1">  1        4 0.17311673E-02 0.20007901E+02</pdfrwt>
<pdfrwt beam="2">  1       -4 0.13682874E-02 0.20007901E+02</pdfrwt>
<totfact> 0.12994859E+06</totfact>
</mgrwt>
</event>
<event>
 5    1  0.1180016E-006  0.2000101E+02  0.7818608E-02  0.1745308E+00
         -4   -1    0    0    0  501 -0.00000000000E+00  0.00000000000E+00  0.54140789421E+02  0.54159408039E+02  0.14200000000E+01 0.  1.
          4   -1    0    0  501    0  0.00000000000E+00 -0.00000000000E+00 -0.15525086553E+01  0.21039684229E+01  0.14200000000E+01 0. -1.
       1023    2    1    2    0    0  0.00000000000E+00  0.00000000000E+00  0.52588280766E+02  0.56263376462E+02  0.20001006400E+02 0.  0.
        -11    1    3    3    0    0  0.80206508748E+00 -0.99682154753E+01  0.26187548490E+02  0.28032058867E+02  0.51100000000E-03 0.  1.
         11    1    3    3    0    0 -0.80206508748E+00  0.99682154753E+01  0.26400732276E+02  0.28231317595E+02  0.51100000000E-03 0. -1.
<mgrwt>
<rscale>  0 0.20001006E+02</rscale>
<asrwt>0</asrwt>
<pdfrwt beam="2">  1        4 0.28269968E-03 0.20001006E+02</pdfrwt>
<pdfrwt beam="1">  1       -4 0.83732041E-02 0.20001006E+02</pdfrwt>
<totfact> 0.11263397E+06</totfact>
</mgrwt>
</event>
<event>
 4    1  0.1154861E-006  0.2117867E+02  0.7818608E-02  0.1722856E+00
         -4   -1    0    0    0  501 -0.00000000000E+00  0.00000000000E+00  0.47969344372E+01  0.50026972720E+01  0.14200000000E+01 0.  1.
          4   -1    0    0  501    0  0.00000000000E+00 -0.00000000000E+00 -0.22656894431E+02  0.22701349415E+02  0.14200000000E+01 0. -1.
        -11    1    1    2    0    0  0.43454823896E+01 -0.96446574488E+01 -0.83007621000E+01  0.13446385619E+02  0.51100000000E-03 0. -1.
         11    1    1    2    0    0 -0.43454823896E+01  0.96446574488E+01 -0.95591978938E+01  0.14257661068E+02  0.51100000000E-03 0.  1.
<mgrwt>
<rscale>  0 0.21178669E+02</rscale>
<asrwt>0</asrwt>
<pdfrwt beam="2">  1        4 0.35049235E-02 0.21178669E+02</pdfrwt>
<pdfrwt beam="1">  1       -4 0.75723745E-03 0.21178669E+02</pdfrwt>
<totfact> 0.11179120E+06</totfact>
</mgrwt>
</event>
<event>
 5    1  0.1154861E-006  0.2000189E+02  0.7818608E-02  0.1745290E+00
         -4   -1    0    0    0  501 -0.00000000000E+00  0.00000000000E+00  0.61381149695E+01  0.63002266133E+01  0.14200000000E+01 0.  1.
          4   -1    0    0  501    0  0.00000000000E+00 -0.00000000000E+00 -0.15888171269E+02  0.15951501067E+02  0.14200000000E+01 0. -1.
       1023    2    1    2    0    0  0.00000000000E+00  0.00000000000E+00 -0.97500562998E+01  0.22251727680E+02  0.20001894583E+02 0.  0.
        -11    1    3    3    0    0  0.78986804871E+01 -0.61342973068E+01 -0.48597107140E+01  0.11119152188E+02  0.51100000000E-03 0. -1.
         11    1    3    3    0    0 -0.78986804871E+01  0.61342973068E+01 -0.48903455858E+01  0.11132575492E+02  0.51100000000E-03 0.  1.
<mgrwt>
<rscale>  0 0.20001895E+02</rscale>
<asrwt>0</asrwt>
<pdfrwt beam="2">  1        4 0.24616757E-02 0.20001895E+02</pdfrwt>
<pdfrwt beam="1">  1       -4 0.96166704E-03 0.20001895E+02</pdfrwt>
<totfact> 0.12879151E+06</totfact>
</mgrwt>
</event>
<event>
 5    1  0.1192067E-006  0.2000119E+02  0.7818608E-02  0.1745305E+00
         -4   -1    0    0    0  501 -0.00000000000E+00  0.00000000000E+00  0.20265380569E+02  0.20315069520E+02  0.14200000000E+01 0. -1.
          4   -1    0    0  501    0  0.00000000000E+00 -0.00000000000E+00 -0.47759354153E+01  0.49825655130E+01  0.14200000000E+01 0.  1.
       1023    2    1    2    0    0  0.00000000000E+00  0.00000000000E+00  0.15489445154E+02  0.25297635033E+02  0.20001185642E+02 0.  0.
        -11    1    3    3    0    0  0.89776531898E+01  0.44048687092E+01  0.78757468695E+01  0.12729042154E+02  0.51100000000E-03 0.  1.
         11    1    3    3    0    0 -0.89776531898E+01 -0.44048687092E+01  0.76136982844E+01  0.12568592879E+02  0.51100000000E-03 0. -1.
<mgrwt>
<rscale>  0 0.20001186E+02</rscale>
<asrwt>0</asrwt>
<pdfrwt beam="2">  1        4 0.75447614E-03 0.20001186E+02</pdfrwt>
<pdfrwt beam="1">  1       -4 0.31374677E-02 0.20001186E+02</pdfrwt>
<totfact> 0.12707485E+06</totfact>
</mgrwt>
</event>
<event>
 5    1  0.1154861E-006  0.2000085E+02  0.7818608E-02  0.1745311E+00
          4   -1    0    0  501    0  0.00000000000E+00  0.00000000000E+00  0.37759106846E+02  0.37785798256E+02  0.14200000000E+01 0.  1.
         -4   -1    0    0    0  501 -0.00000000000E+00 -0.00000000000E+00 -0.24285601801E+01  0.28132373786E+01  0.14200000000E+01 0. -1.
       1023    2    1    2    0    0  0.00000000000E+00  0.00000000000E+00  0.35330546666E+02  0.40599035634E+02  0.20000854150E+02 0.  0.
        -11    1    3    3    0    0  0.97055014429E+01 -0.24106821102E+01  0.17624934522E+02  0.20264413726E+02  0.51100000000E-03 0.  1.
         11    1    3    3    0    0 -0.97055014429E+01  0.24106821102E+01  0.17705612144E+02  0.20334621908E+02  0.51100000000E-03 0. -1.
<mgrwt>
<rscale>  0 0.20000854E+02</rscale>
<asrwt>0</asrwt>
<pdfrwt beam="1">  1        4 0.58407372E-02 0.20000854E+02</pdfrwt>
<pdfrwt beam="2">  1       -4 0.40526838E-03 0.20000854E+02</pdfrwt>
<totfact> 0.11933787E+06</totfact>
</mgrwt>
</event>
<event>
 5    1  0.1194567E-006  0.2000177E+02  0.7818608E-02  0.1745293E+00
         -4   -1    0    0    0  501 -0.00000000000E+00  0.00000000000E+00  0.10177618688E+02  0.10276201738E+02  0.14200000000E+01 0. -1.
          4   -1    0    0  501    0  0.00000000000E+00 -0.00000000000E+00 -0.96289540870E+01  0.97330959519E+01  0.14200000000E+01 0.  1.
       1023    2    1    2    0    0  0.00000000000E+00  0.00000000000E+00  0.54866460120E+00  0.20009297690E+02  0.20001773951E+02 0.  0.
        -11    1    3    3    0    0 -0.10152156025E+01  0.99492124819E+01  0.25856854516E+00  0.10004216595E+02  0.51100000000E-03 0. -1.
         11    1    3    3    0    0  0.10152156025E+01 -0.99492124819E+01  0.29009605605E+00  0.10005081095E+02  0.51100000000E-03 0.  1.
<mgrwt>
<rscale>  0 0.20001774E+02</rscale>
<asrwt>0</asrwt>
<pdfrwt beam="2">  1        4 0.14969718E-02 0.20001774E+02</pdfrwt>
<pdfrwt beam="1">  1       -4 0.15813817E-02 0.20001774E+02</pdfrwt>
<totfact> 0.13011136E+06</totfact>
</mgrwt>
</event>
<event>
 5    1  0.1154861E-006  0.2000072E+02  0.7818608E-02  0.1745314E+00
          4   -1    0    0  501    0  0.00000000000E+00  0.00000000000E+00  0.41280764822E+02  0.41305180598E+02  0.14200000000E+01 0.  1.
         -4   -1    0    0    0  501 -0.00000000000E+00 -0.00000000000E+00 -0.21871482860E+01  0.26076843415E+01  0.14200000000E+01 0. -1.
       1023    2    1    2    0    0  0.00000000000E+00  0.00000000000E+00  0.39093616536E+02  0.43912864940E+02  0.20000721322E+02 0.  0.
        -11    1    3    3    0    0 -0.99861286205E+01  0.52745739423E+00  0.19720201639E+02  0.22110796663E+02  0.51100000000E-03 0.  1.
         11    1    3    3    0    0  0.99861286205E+01 -0.52745739423E+00  0.19373414897E+02  0.21802068277E+02  0.51100000000E-03 0. -1.
<mgrwt>
<rscale>  0 0.20000721E+02</rscale>
<asrwt>0</asrwt>
<pdfrwt beam="1">  1        4 0.63851135E-02 0.20000721E+02</pdfrwt>
<pdfrwt beam="2">  1       -4 0.37071144E-03 0.20000721E+02</pdfrwt>
<totfact> 0.11783291E+06</totfact>
</mgrwt>
</event>
<event>
 5    1  0.1154861E-006  0.2000164E+02  0.7818608E-02  0.1745295E+00
         -4   -1    0    0    0  501 -0.00000000000E+00  0.00000000000E+00  0.75546616889E+00  0.16084555115E+01  0.14200000000E+01 0.  1.
          4   -1    0    0  501    0  0.00000000000E+00 -0.00000000000E+00 -0.83757874948E+02  0.83769911160E+02  0.14200000000E+01 0. -1.
       1023    2    1    2    0    0  0.00000000000E+00  0.00000000000E+00 -0.83002408779E+02  0.85378366672E+02  0.20001640743E+02 0.  0.
        -11    1    3    3    0    0  0.80004849881E+01 -0.59995849429E+01 -0.41999518520E+02  0.43173630096E+02  0.51100000000E-03 0.  1.
         11    1    3    3    0    0 -0.80004849881E+01  0.59995849429E+01 -0.41002890259E+02  0.42204736576E+02  0.51100000000E-03 0. -1.
<mgrwt>
<rscale>  0 0.20001641E+02</rscale>
<asrwt>0</asrwt>
<pdfrwt beam="2">  1        4 0.12952363E-01 0.20001641E+02</pdfrwt>
<pdfrwt beam="1">  1       -4 0.18276606E-03 0.20001641E+02</pdfrwt>
<totfact> 0.10237104E+06</totfact>
</mgrwt>
</event>
<event>
 5    1  0.1154861E-006  0.2000053E+02  0.7818608E-02  0.1745317E+00
         -4   -1    0    0    0  501 -0.00000000000E+00  0.00000000000E+00  0.52038936984E+02  0.52058307334E+02  0.14200000000E+01 0.  1.
          4   -1    0    0  501    0  0.00000000000E+00 -0.00000000000E+00 -0.16369214370E+01  0.21670052586E+01  0.14200000000E+01 0. -1.
       1023    2    1    2    0    0  0.00000000000E+00  0.00000000000E+00  0.50402015547E+02  0.54225312592E+02  0.20000533856E+02 0.  0.
        -11    1    3    3    0    0  0.97455911663E+01 -0.22422718951E+01  0.25287082633E+02  0.27192662223E+02  0.51100000000E-03 0.  1.
         11    1    3    3    0    0 -0.97455911663E+01  0.22422718951E+01  0.25114932915E+02  0.27032650370E+02  0.51100000000E-03 0. -1.
<mgrwt>
<rscale>  0 0.20000534E+02</rscale>
<asrwt>0</asrwt>
<pdfrwt beam="2">  1        4 0.29409974E-03 0.20000534E+02</pdfrwt>
<pdfrwt beam="1">  1       -4 0.80482568E-02 0.20000534E+02</pdfrwt>
<totfact> 0.11345478E+06</totfact>
</mgrwt>
</event>
<event>
 5    1  0.1154861E-006  0.2000282E+02  0.7818608E-02  0.1745272E+00
          4   -1    0    0  501    0  0.00000000000E+00  0.00000000000E+00  0.21317305678E+01  0.25613815049E+01  0.14200000000E+01 0.  1.
         -4   -1    0    0    0  501 -0.00000000000E+00 -0.00000000000E+00 -0.42184964291E+02  0.42208857035E+02  0.14200000000E+01 0. -1.
       1023    2    1    2    0    0  0.00000000000E+00  0.00000000000E+00 -0.40053233723E+02  0.44770238540E+02  0.20002817983E+02 0.  0.
        -11    1    3    3    0    0  0.20326641943E+01 -0.97925410254E+01 -0.19912532625E+02  0.22283054980E+02  0.51100000000E-03 0. -1.
         11    1    3    3    0    0 -0.20326641943E+01  0.97925410254E+01 -0.20140701098E+02  0.22487183560E+02  0.51100000000E-03 0.  1.
<mgrwt>
<rscale>  0 0.20002818E+02</rscale>
<asrwt>0</asrwt>
<pdfrwt beam="1">  1        4 0.36284656E-03 0.20002818E+02</pdfrwt>
<pdfrwt beam="2">  1       -4 0.65248819E-02 0.20002818E+02</pdfrwt>
<totfact> 0.11742636E+06</totfact>
</mgrwt>
</event>
<event>
 5    1  0.1154861E-006  0.2000462E+02  0.7818608E-02  0.1745236E+00
         -4   -1    0    0    0  501 -0.00000000000E+00  0.00000000000E+00  0.77477920271E+01  0.78768446281E+01  0.14200000000E+01 0. -1.
          4   -1    0    0  501    0  0.00000000000E+00 -0.00000000000E+00 -0.12637062744E+02  0.12716593679E+02  0.14200000000E+01 0.  1.
       1023    2    1    2    0    0  0.00000000000E+00  0.00000000000E+00 -0.48892707172E+01  0.20593438307E+02  0.20004617796E+02 0.  0.
        -11    1    3    3    0    0  0.93343977741E+01 -0.35920691355E+01 -0.23307418132E+01  0.10269678678E+02  0.51100000000E-03 0.  1.
         11    1    3    3    0    0 -0.93343977741E+01  0.35920691355E+01 -0.25585289040E+01  0.10323759630E+02  0.51100000000E-03 0. -1.
<mgrwt>
<rscale>  0 0.20004618E+02</rscale>
<asrwt>0</asrwt>
<pdfrwt beam="2">  1        4 0.19602084E-02 0.20004618E+02</pdfrwt>
<pdfrwt beam="1">  1       -4 0.12080129E-02 0.20004618E+02</pdfrwt>
<totfact> 0.12972680E+06</totfact>
</mgrwt>
</event>
<event>
 5    1  0.1161782E-006  0.2000132E+02  0.7818608E-02  0.1745302E+00
          4   -1    0    0  501    0  0.00000000000E+00  0.00000000000E+00  0.36074019016E+01  0.38768219562E+01  0.14200000000E+01 0.  1.
         -4   -1    0    0    0  501 -0.00000000000E+00 -0.00000000000E+00 -0.26437256098E+02  0.26475364209E+02  0.14200000000E+01 0. -1.
       1023    2    1    2    0    0  0.00000000000E+00  0.00000000000E+00 -0.22829854197E+02  0.30352186165E+02  0.20001324015E+02 0.  0.
        -11    1    3    3    0    0  0.14166409786E+01 -0.98998165931E+01 -0.11414466368E+02  0.15175746537E+02  0.51100000000E-03 0. -1.
         11    1    3    3    0    0 -0.14166409786E+01  0.98998165931E+01 -0.11415387829E+02  0.15176439628E+02  0.51100000000E-03 0.  1.
<mgrwt>
<rscale>  0 0.20001324E+02</rscale>
<asrwt>0</asrwt>
<pdfrwt beam="1">  1        4 0.57864094E-03 0.20001324E+02</pdfrwt>
<pdfrwt beam="2">  1       -4 0.40909261E-02 0.20001324E+02</pdfrwt>
<totfact> 0.12435713E+06</totfact>
</mgrwt>
</event>
<event>
 5    1  0.1154861E-006  0.2000034E+02  0.7818608E-02  0.1745321E+00
          4   -1    0    0  501    0  0.00000000000E+00  0.00000000000E+00  0.10627054315E+03  0.10628002984E+03  0.14200000000E+01 0.  1.
         -4   -1    0    0    0  501 -0.00000000000E+00 -0.00000000000E+00 -0.39028846799E+00  0.14726591894E+01  0.14200000000E+01 0. -1.
       1023    2    1    2    0    0  0.00000000000E+00  0.00000000000E+00  0.10588025469E+03  0.10775268903E+03  0.20000341501E+02 0.  0.
        -11    1    3    3    0    0 -0.59839712890E+01 -0.80121839980E+01  0.52831041727E+02  0.53769154494E+02  0.51100000000E-03 0. -1.
         11    1    3    3    0    0  0.59839712890E+01  0.80121839980E+01  0.53049212960E+02  0.53983534533E+02  0.51100000000E-03 0.  1.
<mgrwt>
<rscale>  0 0.20000342E+02</rscale>
<asrwt>0</asrwt>
<pdfrwt beam="1">  1        4 0.16433307E-01 0.20000342E+02</pdfrwt>
<pdfrwt beam="2">  1       -4 0.14403338E-03 0.20000342E+02</pdfrwt>
<totfact> 0.95855014E+05</totfact>
</mgrwt>
</event>
<event>
 5    1  0.1163498E-006  0.2000064E+02  0.7818608E-02  0.1745315E+00
         -4   -1    0    0    0  501 -0.00000000000E+00  0.00000000000E+00  0.13909561008E+02  0.13981855651E+02  0.14200000000E+01 0.  1.
          4   -1    0    0  501    0  0.00000000000E+00 -0.00000000000E+00 -0.70276281179E+01  0.71696552890E+01  0.14200000000E+01 0.  1.
       1023    2    1    2    0    0  0.00000000000E+00  0.00000000000E+00  0.68819328900E+01  0.21151510940E+02  0.20000635358E+02 0.  0.
        -11    1    3    3    0    0 -0.63361062450E+01  0.77368428980E+01  0.34017796521E+01  0.10563005512E+02  0.51100000000E-03 0. -1.
         11    1    3    3    0    0  0.63361062450E+01 -0.77368428980E+01  0.34801532379E+01  0.10588505428E+02  0.51100000000E-03 0.  1.
<mgrwt>
<rscale>  0 0.20000635E+02</rscale>
<asrwt>0</asrwt>
<pdfrwt beam="2">  1        4 0.10976598E-02 0.20000635E+02</pdfrwt>
<pdfrwt beam="1">  1       -4 0.21564188E-02 0.20000635E+02</pdfrwt>
<totfact> 0.12944980E+06</totfact>
</mgrwt>
</event>
<event>
 5    1  0.1154861E-006  0.2000068E+02  0.7818608E-02  0.1745315E+00
          4   -1    0    0  501    0  0.00000000000E+00  0.00000000000E+00  0.65913209101E+02  0.65928503198E+02  0.14200000000E+01 0. -1.
         -4   -1    0    0    0  501 -0.00000000000E+00 -0.00000000000E+00 -0.11660630517E+01  0.18374174922E+01  0.14200000000E+01 0.  1.
       1023    2    1    2    0    0  0.00000000000E+00  0.00000000000E+00  0.64747146049E+02  0.67765920690E+02  0.20000677127E+02 0.  0.
        -11    1    3    3    0    0 -0.91320697272E+01 -0.40757904245E+01  0.32381896199E+02  0.33890912747E+02  0.51100000000E-03 0. -1.
         11    1    3    3    0    0  0.91320697272E+01  0.40757904245E+01  0.32365249850E+02  0.33875007944E+02  0.51100000000E-03 0.  1.
<mgrwt>
<rscale>  0 0.20000677E+02</rscale>
<asrwt>0</asrwt>
<pdfrwt beam="1">  1        4 0.10193315E-01 0.20000677E+02</pdfrwt>
<pdfrwt beam="2">  1       -4 0.23221338E-03 0.20000677E+02</pdfrwt>
<totfact> 0.10829651E+06</totfact>
</mgrwt>
</event>
<event>
 5    1  0.1154861E-006  0.2000032E+02  0.7818608E-02  0.1745322E+00
          4   -1    0    0  501    0  0.00000000000E+00  0.00000000000E+00  0.56842937098E+02  0.56860670924E+02  0.14200000000E+01 0. -1.
         -4   -1    0    0    0  501 -0.00000000000E+00 -0.00000000000E+00 -0.14517294436E+01  0.20307433066E+01  0.14200000000E+01 0.  1.
       1023    2    1    2    0    0  0.00000000000E+00  0.00000000000E+00  0.55391207654E+02  0.58891414230E+02  0.20000319614E+02 0.  0.
        -11    1    3    3    0    0 -0.31459666429E+01 -0.94922738896E+01  0.27852140424E+02  0.29592939972E+02  0.51100000000E-03 0. -1.
         11    1    3    3    0    0  0.31459666429E+01  0.94922738896E+01  0.27539067230E+02  0.29298474258E+02  0.51100000000E-03 0.  1.
<mgrwt>
<rscale>  0 0.20000320E+02</rscale>
<asrwt>0</asrwt>
<pdfrwt beam="1">  1        4 0.87909693E-02 0.20000320E+02</pdfrwt>
<pdfrwt beam="2">  1       -4 0.26924671E-03 0.20000320E+02</pdfrwt>
<totfact> 0.11161229E+06</totfact>
</mgrwt>
</event>
<event>
 5    1  0.1209007E-006  0.2000112E+02  0.7818608E-02  0.1745306E+00
          4   -1    0    0  501    0  0.00000000000E+00  0.00000000000E+00  0.70883975400E+01  0.72292309194E+01  0.14200000000E+01 0. -1.
         -4   -1    0    0    0  501 -0.00000000000E+00 -0.00000000000E+00 -0.13792710735E+02  0.13865614642E+02  0.14200000000E+01 0.  1.
       1023    2    1    2    0    0  0.00000000000E+00  0.00000000000E+00 -0.67043131948E+01  0.21094845562E+02  0.20001117315E+02 0.  0.
        -11    1    3    3    0    0 -0.62576488074E+01 -0.78008161522E+01 -0.33695498190E+01  0.10552950653E+02  0.51100000000E-03 0. -1.
         11    1    3    3    0    0  0.62576488074E+01  0.78008161522E+01 -0.33347633758E+01  0.10541894909E+02  0.51100000000E-03 0.  1.
<mgrwt>
<rscale>  0 0.20001117E+02</rscale>
<asrwt>0</asrwt>
<pdfrwt beam="1">  1        4 0.11069640E-02 0.20001117E+02</pdfrwt>
<pdfrwt beam="2">  1       -4 0.21383968E-02 0.20001117E+02</pdfrwt>
<totfact> 0.12947680E+06</totfact>
</mgrwt>
</event>
<event>
 5    1  0.1154861E-006  0.2000029E+02  0.7818608E-02  0.1745322E+00
          4   -1    0    0  501    0  0.00000000000E+00  0.00000000000E+00  0.84195226889E+02  0.84207200588E+02  0.14200000000E+01 0.  1.
         -4   -1    0    0    0  501 -0.00000000000E+00 -0.00000000000E+00 -0.74688107849E+00  0.16044411318E+01  0.14200000000E+01 0. -1.
       1023    2    1    2    0    0  0.00000000000E+00  0.00000000000E+00  0.83448345810E+02  0.85811641720E+02  0.20000285902E+02 0.  0.
        -11    1    3    3    0    0  0.89381835250E+01  0.44843689832E+01  0.41524358335E+02  0.42711509284E+02  0.51100000000E-03 0.  1.
         11    1    3    3    0    0 -0.89381835250E+01 -0.44843689832E+01  0.41923987475E+02  0.43100132436E+02  0.51100000000E-03 0. -1.
<mgrwt>
<rscale>  0 0.20000286E+02</rscale>
<asrwt>0</asrwt>
<pdfrwt beam="1">  1        4 0.13019999E-01 0.20000286E+02</pdfrwt>
<pdfrwt beam="2">  1       -4 0.18179199E-03 0.20000286E+02</pdfrwt>
<totfact> 0.10224877E+06</totfact>
</mgrwt>
</event>
<event>
 5    1  0.1154861E-006  0.2000031E+02  0.7818608E-02  0.1745322E+00
         -4   -1    0    0    0  501 -0.00000000000E+00  0.00000000000E+00  0.21965956463E+02  0.22011806907E+02  0.14200000000E+01 0. -1.
          4   -1    0    0  501    0  0.00000000000E+00 -0.00000000000E+00 -0.43899504551E+01  0.46138991101E+01  0.14200000000E+01 0.  1.
       1023    2    1    2    0    0  0.00000000000E+00  0.00000000000E+00  0.17576006008E+02  0.26625706018E+02  0.20000305841E+02 0.  0.
        -11    1    3    3    0    0 -0.19784130858E+01 -0.98024918757E+01  0.87751740755E+01  0.13304384451E+02  0.51100000000E-03 0. -1.
         11    1    3    3    0    0  0.19784130858E+01  0.98024918757E+01  0.88008319322E+01  0.13321321566E+02  0.51100000000E-03 0.  1.
<mgrwt>
<rscale>  0 0.20000306E+02</rscale>
<asrwt>0</asrwt>
<pdfrwt beam="2">  1        4 0.69613078E-03 0.20000306E+02</pdfrwt>
<pdfrwt beam="1">  1       -4 0.34001316E-02 0.20000306E+02</pdfrwt>
<totfact> 0.12635479E+06</totfact>
</mgrwt>
</event>
<event>
 5    1  0.1154861E-006  0.2000048E+02  0.7818608E-02  0.1745319E+00
          4   -1    0    0  501    0  0.00000000000E+00  0.00000000000E+00  0.17588848209E+02  0.17646075522E+02  0.14200000000E+01 0. -1.
         -4   -1    0    0    0  501 -0.00000000000E+00 -0.00000000000E+00 -0.55293734529E+01  0.57087976652E+01  0.14200000000E+01 0.  1.
       1023    2    1    2    0    0  0.00000000000E+00  0.00000000000E+00  0.12059474756E+02  0.23354873187E+02  0.20000479249E+02 0.  0.
        -11    1    3    3    0    0  0.98162535743E+01 -0.19092236493E+01  0.60632389996E+01  0.11694735423E+02  0.51100000000E-03 0. -1.
         11    1    3    3    0    0 -0.98162535743E+01  0.19092236493E+01  0.59962357568E+01  0.11660137765E+02  0.51100000000E-03 0.  1.
<mgrwt>
<rscale>  0 0.20000479E+02</rscale>
<asrwt>0</asrwt>
<pdfrwt beam="1">  1        4 0.27241806E-02 0.20000479E+02</pdfrwt>
<pdfrwt beam="2">  1       -4 0.86887679E-03 0.20000479E+02</pdfrwt>
<totfact> 0.12817694E+06</totfact>
</mgrwt>
</event>
<event>
 5    1  0.1154861E-006  0.2000101E+02  0.7818608E-02  0.1745308E+00
         -4   -1    0    0    0  501 -0.00000000000E+00  0.00000000000E+00  0.30025588039E+00  0.14513971179E+01  0.14200000000E+01 0. -1.
          4   -1    0    0  501    0  0.00000000000E+00 -0.00000000000E+00 -0.11303082091E+03  0.11303974025E+03  0.14200000000E+01 0.  1.
       1023    2    1    2    0    0  0.00000000000E+00  0.00000000000E+00 -0.11273056503E+03  0.11449113737E+03  0.20001006067E+02 0.  0.
        -11    1    3    3    0    0  0.48268743254E+01  0.87580337344E+01 -0.56883321399E+02  0.57755641493E+02  0.51100000000E-03 0. -1.
         11    1    3    3    0    0 -0.48268743254E+01 -0.87580337344E+01 -0.55847243630E+02  0.56735495873E+02  0.51100000000E-03 0.  1.
<mgrwt>
<rscale>  0 0.20001006E+02</rscale>
<asrwt>0</asrwt>
<pdfrwt beam="2">  1        4 0.17478581E-01 0.20001006E+02</pdfrwt>
<pdfrwt beam="1">  1       -4 0.13542873E-03 0.20001006E+02</pdfrwt>
<totfact> 0.94058807E+05</totfact>
</mgrwt>
</event>
<event>
 5    1  0.1154861E-006  0.2000816E+02  0.7818608E-02  0.1745166E+00
          4   -1    0    0  501    0  0.00000000000E+00  0.00000000000E+00  0.14528861437E+02  0.14598089418E+02  0.14200000000E+01 0.  1.
         -4   -1    0    0    0  501 -0.00000000000E+00 -0.00000000000E+00 -0.67285892603E+01  0.68767952881E+01  0.14200000000E+01 0. -1.
       1023    2    1    2    0    0  0.00000000000E+00  0.00000000000E+00  0.78002721763E+01  0.21474884706E+02  0.20008159013E+02 0.  0.
        -11    1    3    3    0    0 -0.16293085675E+01  0.98664239140E+01  0.35953487206E+01  0.10626735150E+02  0.51100000000E-03 0. -1.
         11    1    3    3    0    0  0.16293085675E+01 -0.98664239140E+01  0.42049234557E+01  0.10848149556E+02  0.51100000000E-03 0.  1.
<mgrwt>
<rscale>  0 0.20008159E+02</rscale>
<asrwt>0</asrwt>
<pdfrwt beam="1">  1        4 0.22519351E-02 0.20008159E+02</pdfrwt>
<pdfrwt beam="2">  1       -4 0.10518933E-02 0.20008159E+02</pdfrwt>
<totfact> 0.12916084E+06</totfact>
</mgrwt>
</event>
<event>
 5    1  0.1154861E-006  0.2000064E+02  0.7818608E-02  0.1745315E+00
          4   -1    0    0  501    0  0.00000000000E+00  0.00000000000E+00  0.60316235456E+01  0.61965218144E+01  0.14200000000E+01 0.  1.
         -4   -1    0    0    0  501 -0.00000000000E+00 -0.00000000000E+00 -0.16160311354E+02  0.16222578804E+02  0.14200000000E+01 0. -1.
       1023    2    1    2    0    0  0.00000000000E+00  0.00000000000E+00 -0.10128687808E+02  0.22419100618E+02  0.20000643885E+02 0.  0.
        -11    1    3    3    0    0  0.23887632608E+01 -0.97105482935E+01 -0.51474781429E+01  0.11247109387E+02  0.51100000000E-03 0.  1.
         11    1    3    3    0    0 -0.23887632608E+01  0.97105482935E+01 -0.49812096651E+01  0.11171991231E+02  0.51100000000E-03 0. -1.
<mgrwt>
<rscale>  0 0.20000644E+02</rscale>
<asrwt>0</asrwt>
<pdfrwt beam="1">  1        4 0.94541638E-03 0.20000644E+02</pdfrwt>
<pdfrwt beam="2">  1       -4 0.25036760E-02 0.20000644E+02</pdfrwt>
<totfact> 0.12871123E+06</totfact>
</mgrwt>
</event>
<event>
 4    1  0.1154861E-006  0.2003589E+02  0.7818608E-02  0.1744615E+00
         -4   -1    0    0    0  501 -0.00000000000E+00  0.00000000000E+00  0.20875126386E+01  0.25246997873E+01  0.14200000000E+01 0. -1.
          4   -1    0    0  501    0  0.00000000000E+00 -0.00000000000E+00 -0.43068923639E+02  0.43092326271E+02  0.14200000000E+01 0.  1.
        -11    1    1    2    0    0  0.93486960048E+01  0.35739588164E+01 -0.19503639587E+02  0.21921753032E+02  0.51100000000E-03 0.  1.
         11    1    1    2    0    0 -0.93486960048E+01 -0.35739588164E+01 -0.21477771413E+02  0.23695273026E+02  0.51100000000E-03 0. -1.
<mgrwt>
<rscale>  0 0.20035893E+02</rscale>
<asrwt>0</asrwt>
<pdfrwt beam="2">  1        4 0.66614176E-02 0.20035893E+02</pdfrwt>
<pdfrwt beam="1">  1       -4 0.35658581E-03 0.20035893E+02</pdfrwt>
<totfact> 0.11666264E+06</totfact>
</mgrwt>
</event>
<event>
 5    1  0.1154861E-006  0.2000186E+02  0.7818608E-02  0.1745291E+00
         -4   -1    0    0    0  501 -0.00000000000E+00  0.00000000000E+00  0.22933017179E+01  0.26973380896E+01  0.14200000000E+01 0. -1.
          4   -1    0    0  501    0  0.00000000000E+00 -0.00000000000E+00 -0.39664706971E+02  0.39690116894E+02  0.14200000000E+01 0.  1.
       1023    2    1    2    0    0  0.00000000000E+00  0.00000000000E+00 -0.37371405253E+02  0.42387454984E+02  0.20001860149E+02 0.  0.
        -11    1    3    3    0    0 -0.80062635981E+01 -0.59924094229E+01 -0.18890886580E+02  0.21374630372E+02  0.51100000000E-03 0. -1.
         11    1    3    3    0    0  0.80062635981E+01  0.59924094229E+01 -0.18480518672E+02  0.21012824611E+02  0.51100000000E-03 0.  1.
<mgrwt>
<rscale>  0 0.20001860E+02</rscale>
<asrwt>0</asrwt>
<pdfrwt beam="2">  1        4 0.61352965E-02 0.20001860E+02</pdfrwt>
<pdfrwt beam="1">  1       -4 0.38585001E-03 0.20001860E+02</pdfrwt>
<totfact> 0.11850683E+06</totfact>
</mgrwt>
</event>
<event>
 5    1  0.1154861E-006  0.2000065E+02  0.7818608E-02  0.1745315E+00
         -4   -1    0    0    0  501 -0.00000000000E+00  0.00000000000E+00  0.45494394455E+02  0.45516550032E+02  0.14200000000E+01 0. -1.
          4   -1    0    0  501    0  0.00000000000E+00 -0.00000000000E+00 -0.19437478666E+01  0.24071883534E+01  0.14200000000E+01 0.  1.
       1023    2    1    2    0    0  0.00000000000E+00  0.00000000000E+00  0.43550646589E+02  0.47923738386E+02  0.20000647054E+02 0.  0.
        -11    1    3    3    0    0  0.99854729627E+01 -0.54375004628E+00  0.21856082573E+02  0.24035259102E+02  0.51100000000E-03 0.  1.
         11    1    3    3    0    0 -0.99854729627E+01  0.54375004628E+00  0.21694564015E+02  0.23888479283E+02  0.51100000000E-03 0. -1.
<mgrwt>
<rscale>  0 0.20000647E+02</rscale>
<asrwt>0</asrwt>
<pdfrwt beam="2">  1        4 0.33639165E-03 0.20000647E+02</pdfrwt>
<pdfrwt beam="1">  1       -4 0.70364916E-02 0.20000647E+02</pdfrwt>
<totfact> 0.11607674E+06</totfact>
</mgrwt>
</event>
<event>
 4    1  0.1154861E-006  0.2001988E+02  0.7818608E-02  0.1744933E+00
          4   -1    0    0  501    0  0.00000000000E+00  0.00000000000E+00  0.72056244947E+01  0.73442102610E+01  0.14200000000E+01 0. -1.
         -4   -1    0    0    0  501 -0.00000000000E+00 -0.00000000000E+00 -0.13597283232E+02  0.13671229327E+02  0.14200000000E+01 0.  1.
        -11    1    1    2    0    0 -0.17354454566E+01  0.98495784773E+01 -0.36322976378E+01  0.10640467730E+02  0.51100000000E-03 0. -1.
         11    1    1    2    0    0  0.17354454566E+01 -0.98495784773E+01 -0.27593610999E+01  0.10374971858E+02  0.51100000000E-03 0.  1.
<mgrwt>
<rscale>  0 0.20019875E+02</rscale>
<asrwt>0</asrwt>
<pdfrwt beam="1">  1        4 0.11249062E-02 0.20019875E+02</pdfrwt>
<pdfrwt beam="2">  1       -4 0.21082383E-02 0.20019875E+02</pdfrwt>
<totfact> 0.12927611E+06</totfact>
</mgrwt>
</event>
<event>
 5    1  0.1154861E-006  0.2000057E+02  0.7818608E-02  0.1745317E+00
         -4   -1    0    0    0  501 -0.00000000000E+00  0.00000000000E+00  0.84086848373E+02  0.84098837502E+02  0.14200000000E+01 0.  1.
          4   -1    0    0  501    0  0.00000000000E+00 -0.00000000000E+00 -0.74899416093E+00  0.16054258790E+01  0.14200000000E+01 0. -1.
       1023    2    1    2    0    0  0.00000000000E+00  0.00000000000E+00  0.83337854212E+02  0.85704263382E+02  0.20000570420E+02 0.  0.
        -11    1    3    3    0    0  0.65974621998E+01  0.75152388725E+01  0.41585259929E+02  0.42770774676E+02  0.51100000000E-03 0. -1.
         11    1    3    3    0    0 -0.65974621998E+01 -0.75152388725E+01  0.41752594283E+02  0.42933488705E+02  0.51100000000E-03 0.  1.
<mgrwt>
<rscale>  0 0.20000570E+02</rscale>
<asrwt>0</asrwt>
<pdfrwt beam="2">  1        4 0.18203146E-03 0.20000570E+02</pdfrwt>
<pdfrwt beam="1">  1       -4 0.13003241E-01 0.20000570E+02</pdfrwt>
<totfact> 0.10227956E+06</totfact>
</mgrwt>
</event>
<event>
 5    1  0.1154861E-006  0.2000594E+02  0.7818608E-02  0.1745210E+00
         -4   -1    0    0    0  501 -0.00000000000E+00  0.00000000000E+00  0.24281448721E+02  0.24322934691E+02  0.14200000000E+01 0. -1.
          4   -1    0    0  501    0  0.00000000000E+00 -0.00000000000E+00 -0.39520247542E+01  0.41993927725E+01  0.14200000000E+01 0.  1.
       1023    2    1    2    0    0  0.00000000000E+00  0.00000000000E+00  0.20329423967E+02  0.28522327464E+02  0.20005941246E+02 0.  0.
        -11    1    3    3    0    0 -0.81570010676E+01  0.57878972368E+01  0.99484941137E+01  0.14107053421E+02  0.51100000000E-03 0. -1.
         11    1    3    3    0    0  0.81570010676E+01 -0.57878972368E+01  0.10380929853E+02  0.14415274042E+02  0.51100000000E-03 0.  1.
<mgrwt>
<rscale>  0 0.20005941E+02</rscale>
<asrwt>0</asrwt>
<pdfrwt beam="2">  1        4 0.63022335E-03 0.20005941E+02</pdfrwt>
<pdfrwt beam="1">  1       -4 0.37578270E-02 0.20005941E+02</pdfrwt>
<totfact> 0.12526084E+06</totfact>
</mgrwt>
</event>
<event>
 5    1  0.1154861E-006  0.2000384E+02  0.7818608E-02  0.1745252E+00
         -4   -1    0    0    0  501 -0.00000000000E+00  0.00000000000E+00  0.44598644844E+02  0.44621245186E+02  0.14200000000E+01 0. -1.
          4   -1    0    0  501    0  0.00000000000E+00 -0.00000000000E+00 -0.19927683506E+01  0.24469421119E+01  0.14200000000E+01 0.  1.
       1023    2    1    2    0    0  0.00000000000E+00  0.00000000000E+00  0.42605876493E+02  0.47068187298E+02  0.20003838224E+02 0.  0.
        -11    1    3    3    0    0  0.79479412254E+01  0.60708336840E+01  0.21028595829E+02  0.23285760330E+02  0.51100000000E-03 0.  1.
         11    1    3    3    0    0 -0.79479412254E+01 -0.60708336840E+01  0.21577280665E+02  0.23782426968E+02  0.51100000000E-03 0. -1.
<mgrwt>
<rscale>  0 0.20003838E+02</rscale>
<asrwt>0</asrwt>
<pdfrwt beam="2">  1        4 0.34325471E-03 0.20003838E+02</pdfrwt>
<pdfrwt beam="1">  1       -4 0.68980042E-02 0.20003838E+02</pdfrwt>
<totfact> 0.11640805E+06</totfact>
</mgrwt>
</event>
<event>
 4    1  0.1154861E-006  0.2005147E+02  0.7818608E-02  0.1744306E+00
         -4   -1    0    0    0  501 -0.00000000000E+00  0.00000000000E+00  0.23286525358E+02  0.23329780608E+02  0.14200000000E+01 0.  1.
          4   -1    0    0  501    0  0.00000000000E+00 -0.00000000000E+00 -0.41510082793E+01  0.43871710400E+01  0.14200000000E+01 0. -1.
        -11    1    1    2    0    0 -0.79704781908E+01  0.60464902224E+01  0.86647284003E+01  0.13235032494E+02  0.51100000000E-03 0.  1.
         11    1    1    2    0    0  0.79704781908E+01 -0.60464902224E+01  0.10470788678E+02  0.14481919155E+02  0.51100000000E-03 0. -1.
<mgrwt>
<rscale>  0 0.20051469E+02</rscale>
<asrwt>0</asrwt>
<pdfrwt beam="2">  1        4 0.66011035E-03 0.20051469E+02</pdfrwt>
<pdfrwt beam="1">  1       -4 0.36040361E-02 0.20051469E+02</pdfrwt>
<totfact> 0.12511153E+06</totfact>
</mgrwt>
</event>
<event>
 5    1  0.1154861E-006  0.2000035E+02  0.7818608E-02  0.1745321E+00
          4   -1    0    0  501    0  0.00000000000E+00  0.00000000000E+00  0.12536842526E+02  0.12617005212E+02  0.14200000000E+01 0.  1.
         -4   -1    0    0    0  501 -0.00000000000E+00 -0.00000000000E+00 -0.78069352399E+01  0.79350260138E+01  0.14200000000E+01 0. -1.
       1023    2    1    2    0    0  0.00000000000E+00  0.00000000000E+00  0.47299072862E+01  0.20552031226E+02  0.20000349111E+02 0.  0.
        -11    1    3    3    0    0  0.19731492868E+01  0.98034634004E+01  0.24139999881E+01  0.10287303289E+02  0.51100000000E-03 0. -1.
         11    1    3    3    0    0 -0.19731492868E+01 -0.98034634004E+01  0.23159072981E+01  0.10264727937E+02  0.51100000000E-03 0.  1.
<mgrwt>
<rscale>  0 0.20000349E+02</rscale>
<asrwt>0</asrwt>
<pdfrwt beam="1">  1        4 0.19447645E-02 0.20000349E+02</pdfrwt>
<pdfrwt beam="2">  1       -4 0.12170865E-02 0.20000349E+02</pdfrwt>
<totfact> 0.12980780E+06</totfact>
</mgrwt>
</event>
<event>
 5    1  0.1154861E-006  0.2000025E+02  0.7818608E-02  0.1745323E+00
          4   -1    0    0  501    0  0.00000000000E+00  0.00000000000E+00  0.18105009706E+01  0.23009375838E+01  0.14200000000E+01 0.  1.
         -4   -1    0    0    0  501 -0.00000000000E+00 -0.00000000000E+00 -0.48143848677E+02  0.48164785533E+02  0.14200000000E+01 0. -1.
       1023    2    1    2    0    0  0.00000000000E+00  0.00000000000E+00 -0.46333347706E+02  0.50465723117E+02  0.20000252499E+02 0.  0.
        -11    1    3    3    0    0 -0.97614373506E+01  0.21717461761E+01 -0.23117219533E+02  0.25187456795E+02  0.51100000000E-03 0.  1.
         11    1    3    3    0    0  0.97614373506E+01 -0.21717461761E+01 -0.23216128173E+02  0.25278266322E+02  0.51100000000E-03 0. -1.
<mgrwt>
<rscale>  0 0.20000252E+02</rscale>
<asrwt>0</asrwt>
<pdfrwt beam="1">  1        4 0.31787507E-03 0.20000252E+02</pdfrwt>
<pdfrwt beam="2">  1       -4 0.74460815E-02 0.20000252E+02</pdfrwt>
<totfact> 0.11500382E+06</totfact>
</mgrwt>
</event>
<event>
 5    1  0.1154861E-006  0.2000048E+02  0.7818608E-02  0.1745319E+00
          4   -1    0    0  501    0  0.00000000000E+00  0.00000000000E+00  0.60075156474E+02  0.60091936442E+02  0.14200000000E+01 0. -1.
         -4   -1    0    0    0  501 -0.00000000000E+00 -0.00000000000E+00 -0.13416470977E+01  0.19535651857E+01  0.14200000000E+01 0.  1.
       1023    2    1    2    0    0  0.00000000000E+00  0.00000000000E+00  0.58733509376E+02  0.62045501628E+02  0.20000478709E+02 0.  0.
        -11    1    3    3    0    0 -0.99764294589E+01 -0.68658618998E+00  0.29164717257E+02  0.30831498152E+02  0.51100000000E-03 0.  1.
         11    1    3    3    0    0  0.99764294589E+01  0.68658618998E+00  0.29568792119E+02  0.31214003476E+02  0.51100000000E-03 0. -1.
<mgrwt>
<rscale>  0 0.20000479E+02</rscale>
<asrwt>0</asrwt>
<pdfrwt beam="1">  1        4 0.92906950E-02 0.20000479E+02</pdfrwt>
<pdfrwt beam="2">  1       -4 0.25476859E-03 0.20000479E+02</pdfrwt>
<totfact> 0.11040482E+06</totfact>
</mgrwt>
</event>
<event>
 5    1  0.1154861E-006  0.2000035E+02  0.7818608E-02  0.1745321E+00
         -4   -1    0    0    0  501 -0.00000000000E+00  0.00000000000E+00  0.21394463443E+02  0.21441536000E+02  0.14200000000E+01 0.  1.
          4   -1    0    0  501    0  0.00000000000E+00 -0.00000000000E+00 -0.45128727022E+01  0.47310062382E+01  0.14200000000E+01 0. -1.
       1023    2    1    2    0    0  0.00000000000E+00  0.00000000000E+00  0.16881590741E+02  0.26172542238E+02  0.20000346528E+02 0.  0.
        -11    1    3    3    0    0  0.99201788564E+01  0.12618354867E+01  0.83938364702E+01  0.13055982088E+02  0.51100000000E-03 0. -1.
         11    1    3    3    0    0 -0.99201788564E+01 -0.12618354867E+01  0.84877542710E+01  0.13116560150E+02  0.51100000000E-03 0.  1.
<mgrwt>
<rscale>  0 0.20000347E+02</rscale>
<asrwt>0</asrwt>
<pdfrwt beam="2">  1        4 0.71468858E-03 0.20000347E+02</pdfrwt>
<pdfrwt beam="1">  1       -4 0.33118564E-02 0.20000347E+02</pdfrwt>
<totfact> 0.12660235E+06</totfact>
</mgrwt>
</event>
<event>
 5    1  0.1154861E-006  0.2000221E+02  0.7818608E-02  0.1745284E+00
          4   -1    0    0  501    0  0.00000000000E+00  0.00000000000E+00  0.36448846650E+02  0.36476496846E+02  0.14200000000E+01 0. -1.
         -4   -1    0    0    0  501 -0.00000000000E+00 -0.00000000000E+00 -0.25297712584E+01  0.29010588791E+01  0.14200000000E+01 0.  1.
       1023    2    1    2    0    0  0.00000000000E+00  0.00000000000E+00  0.33919075392E+02  0.39377555725E+02  0.20002205364E+02 0.  0.
        -11    1    3    3    0    0  0.23713647081E+01  0.97147703588E+01  0.17251011801E+02  0.19939848097E+02  0.51100000000E-03 0.  1.
         11    1    3    3    0    0 -0.23713647081E+01 -0.97147703588E+01  0.16668063591E+02  0.19437707628E+02  0.51100000000E-03 0. -1.
<mgrwt>
<rscale>  0 0.20002205E+02</rscale>
<asrwt>0</asrwt>
<pdfrwt beam="1">  1        4 0.56382022E-02 0.20002205E+02</pdfrwt>
<pdfrwt beam="2">  1       -4 0.41988311E-03 0.20002205E+02</pdfrwt>
<totfact> 0.11989003E+06</totfact>
</mgrwt>
</event>
<event>
 5    1  0.1154861E-006  0.2000257E+02  0.7818608E-02  0.1745277E+00
          4   -1    0    0  501    0  0.00000000000E+00  0.00000000000E+00  0.71883865175E+02  0.71897889208E+02  0.14200000000E+01 0. -1.
         -4   -1    0    0    0  501 -0.00000000000E+00 -0.00000000000E+00 -0.10112880145E+01  0.17433024546E+01  0.14200000000E+01 0.  1.
       1023    2    1    2    0    0  0.00000000000E+00  0.00000000000E+00  0.70872577161E+02  0.73641191662E+02  0.20002572735E+02 0.  0.
        -11    1    3    3    0    0  0.30342595143E+01 -0.95291569473E+01  0.34998105270E+02  0.36398886462E+02  0.51100000000E-03 0.  1.
         11    1    3    3    0    0 -0.30342595143E+01  0.95291569473E+01  0.35874471890E+02  0.37242305200E+02  0.51100000000E-03 0. -1.
<mgrwt>
<rscale>  0 0.20002573E+02</rscale>
<asrwt>0</asrwt>
<pdfrwt beam="1">  1        4 0.11116448E-01 0.20002573E+02</pdfrwt>
<pdfrwt beam="2">  1       -4 0.21297027E-03 0.20002573E+02</pdfrwt>
<totfact> 0.10621350E+06</totfact>
</mgrwt>
</event>
<event>
 5    1  0.1167566E-006  0.2000220E+02  0.7818608E-02  0.1745284E+00
          4   -1    0    0  501    0  0.00000000000E+00  0.00000000000E+00  0.28432475368E+01  0.31781215451E+01  0.14200000000E+01 0. -1.
         -4   -1    0    0    0  501 -0.00000000000E+00 -0.00000000000E+00 -0.32871285415E+02  0.32901942266E+02  0.14200000000E+01 0.  1.
       1023    2    1    2    0    0  0.00000000000E+00  0.00000000000E+00 -0.30028037879E+02  0.36080063811E+02  0.20002198523E+02 0.  0.
        -11    1    3    3    0    0  0.56463198568E+01  0.82538384913E+01 -0.14791569401E+02  0.17854895781E+02  0.51100000000E-03 0. -1.
         11    1    3    3    0    0 -0.56463198568E+01 -0.82538384913E+01 -0.15236468478E+02  0.18225168030E+02  0.51100000000E-03 0.  1.
<mgrwt>
<rscale>  0 0.20002199E+02</rscale>
<asrwt>0</asrwt>
<pdfrwt beam="1">  1        4 0.46554048E-03 0.20002199E+02</pdfrwt>
<pdfrwt beam="2">  1       -4 0.50852383E-02 0.20002199E+02</pdfrwt>
<totfact> 0.12146407E+06</totfact>
</mgrwt>
</event>
<event>
 5    1  0.1154861E-006  0.2000952E+02  0.7818608E-02  0.1745139E+00
          4   -1    0    0  501    0  0.00000000000E+00  0.00000000000E+00  0.29541388873E+00  0.14504031735E+01  0.14200000000E+01 0. -1.
         -4   -1    0    0    0  501 -0.00000000000E+00 -0.00000000000E+00 -0.11350629289E+03  0.11351517487E+03  0.14200000000E+01 0.  1.
       1023    2    1    2    0    0  0.00000000000E+00  0.00000000000E+00 -0.11321087900E+03  0.11496557804E+03  0.20009522995E+02 0.  0.
        -11    1    3    3    0    0 -0.71894558906E+01 -0.69567839521E+01 -0.56027065541E+02  0.56913242680E+02  0.51100000000E-03 0. -1.
         11    1    3    3    0    0  0.71894558906E+01  0.69567839521E+01 -0.57183813459E+02  0.58052335362E+02  0.51100000000E-03 0.  1.
<mgrwt>
<rscale>  0 0.20009523E+02</rscale>
<asrwt>0</asrwt>
<pdfrwt beam="1">  1        4 0.13497694E-03 0.20009523E+02</pdfrwt>
<pdfrwt beam="2">  1       -4 0.17552023E-01 0.20009523E+02</pdfrwt>
<totfact> 0.93855979E+05</totfact>
</mgrwt>
</event>
<event>
 5    1  0.1154861E-006  0.2000544E+02  0.7818608E-02  0.1745220E+00
          4   -1    0    0  501    0  0.00000000000E+00  0.00000000000E+00  0.58437926959E+01  0.60138434526E+01  0.14200000000E+01 0. -1.
         -4   -1    0    0    0  501 -0.00000000000E+00 -0.00000000000E+00 -0.16675294087E+02  0.16735645578E+02  0.14200000000E+01 0.  1.
       1023    2    1    2    0    0  0.00000000000E+00  0.00000000000E+00 -0.10831501391E+02  0.22749489030E+02  0.20005444977E+02 0.  0.
        -11    1    3    3    0    0  0.97902426319E+01  0.20440737669E+01 -0.56038769736E+01  0.11464315320E+02  0.51100000000E-03 0.  1.
         11    1    3    3    0    0 -0.97902426319E+01 -0.20440737669E+01 -0.52276244178E+01  0.11285173710E+02  0.51100000000E-03 0. -1.
<mgrwt>
<rscale>  0 0.20005445E+02</rscale>
<asrwt>0</asrwt>
<pdfrwt beam="1">  1        4 0.91676829E-03 0.20005445E+02</pdfrwt>
<pdfrwt beam="2">  1       -4 0.25831531E-02 0.20005445E+02</pdfrwt>
<totfact> 0.12845810E+06</totfact>
</mgrwt>
</event>
<event>
 5    1  0.1154861E-006  0.2000038E+02  0.7818608E-02  0.1745321E+00
          4   -1    0    0  501    0  0.00000000000E+00  0.00000000000E+00  0.88274301030E+02  0.88285721509E+02  0.14200000000E+01 0. -1.
         -4   -1    0    0    0  501 -0.00000000000E+00 -0.00000000000E+00 -0.67180573490E+00  0.15708987700E+01  0.14200000000E+01 0.  1.
       1023    2    1    2    0    0  0.00000000000E+00  0.00000000000E+00  0.87602495295E+02  0.89856620279E+02  0.20000375646E+02 0.  0.
        -11    1    3    3    0    0  0.86289696144E+01 -0.50540729135E+01  0.43660128332E+02  0.44790730914E+02  0.51100000000E-03 0. -1.
         11    1    3    3    0    0 -0.86289696144E+01  0.50540729135E+01  0.43942366964E+02  0.45065889365E+02  0.51100000000E-03 0.  1.
<mgrwt>
<rscale>  0 0.20000376E+02</rscale>
<asrwt>0</asrwt>
<pdfrwt beam="1">  1        4 0.13650699E-01 0.20000376E+02</pdfrwt>
<pdfrwt beam="2">  1       -4 0.17339425E-03 0.20000376E+02</pdfrwt>
<totfact> 0.10099697E+06</totfact>
</mgrwt>
</event>
<event>
 5    1  0.1154861E-006  0.2000349E+02  0.7818608E-02  0.1745259E+00
         -4   -1    0    0    0  501 -0.00000000000E+00  0.00000000000E+00  0.27485009722E+01  0.30936479429E+01  0.14200000000E+01 0.  1.
          4   -1    0    0  501    0  0.00000000000E+00 -0.00000000000E+00 -0.33885031975E+02  0.33914772474E+02  0.14200000000E+01 0. -1.
       1023    2    1    2    0    0  0.00000000000E+00  0.00000000000E+00 -0.31136531003E+02  0.37008420417E+02  0.20003490167E+02 0.  0.
        -11    1    3    3    0    0  0.47761699434E+01  0.87861536269E+01 -0.15870061638E+02  0.18758122282E+02  0.51100000000E-03 0. -1.
         11    1    3    3    0    0 -0.47761699434E+01 -0.87861536269E+01 -0.15266469365E+02  0.18250298135E+02  0.51100000000E-03 0.  1.
<mgrwt>
<rscale>  0 0.20003490E+02</rscale>
<asrwt>0</asrwt>
<pdfrwt beam="2">  1        4 0.52419191E-02 0.20003490E+02</pdfrwt>
<pdfrwt beam="1">  1       -4 0.45168382E-03 0.20003490E+02</pdfrwt>
<totfact> 0.12099913E+06</totfact>
</mgrwt>
</event>
<event>
 5    1  0.1154861E-006  0.2000204E+02  0.7818608E-02  0.1745287E+00
         -4   -1    0    0    0  501 -0.00000000000E+00  0.00000000000E+00  0.29114632596E+00  0.14495399902E+01  0.14200000000E+01 0. -1.
          4   -1    0    0  501    0  0.00000000000E+00 -0.00000000000E+00 -0.11375492437E+03  0.11376378694E+03  0.14200000000E+01 0.  1.
       1023    2    1    2    0    0  0.00000000000E+00  0.00000000000E+00 -0.11346377804E+03  0.11521332693E+03  0.20002044240E+02 0.  0.
        -11    1    3    3    0    0  0.70427992376E+01 -0.71000334681E+01 -0.57276721573E+02  0.58143222569E+02  0.51100000000E-03 0. -1.
         11    1    3    3    0    0 -0.70427992376E+01  0.71000334681E+01 -0.56187056471E+02  0.57070104359E+02  0.51100000000E-03 0.  1.
<mgrwt>
<rscale>  0 0.20002044E+02</rscale>
<asrwt>0</asrwt>
<pdfrwt beam="2">  1        4 0.17590535E-01 0.20002044E+02</pdfrwt>
<pdfrwt beam="1">  1       -4 0.13458077E-03 0.20002044E+02</pdfrwt>
<totfact> 0.93861616E+05</totfact>
</mgrwt>
</event>
<event>
 5    1  0.1154861E-006  0.2000149E+02  0.7818608E-02  0.1745298E+00
          4   -1    0    0  501    0  0.00000000000E+00  0.00000000000E+00  0.10064830127E+01  0.17405194785E+01  0.14200000000E+01 0.  1.
         -4   -1    0    0    0  501 -0.00000000000E+00 -0.00000000000E+00 -0.72074607806E+02  0.72088594732E+02  0.14200000000E+01 0. -1.
       1023    2    1    2    0    0  0.00000000000E+00  0.00000000000E+00 -0.71068124794E+02  0.73829114211E+02  0.20001493530E+02 0.  0.
        -11    1    3    3    0    0 -0.64401337584E+01  0.76509524811E+01 -0.35348073035E+02  0.36735523193E+02  0.51100000000E-03 0. -1.
         11    1    3    3    0    0  0.64401337584E+01 -0.76509524811E+01 -0.35720051758E+02  0.37093591017E+02  0.51100000000E-03 0.  1.
<mgrwt>
<rscale>  0 0.20001494E+02</rscale>
<asrwt>0</asrwt>
<pdfrwt beam="1">  1        4 0.21238386E-03 0.20001494E+02</pdfrwt>
<pdfrwt beam="2">  1       -4 0.11145939E-01 0.20001494E+02</pdfrwt>
<totfact> 0.10616058E+06</totfact>
</mgrwt>
</event>
<event>
 5    1  0.1154861E-006  0.2000044E+02  0.7818608E-02  0.1745319E+00
          4   -1    0    0  501    0  0.00000000000E+00  0.00000000000E+00  0.85943515099E+02  0.85955245259E+02  0.14200000000E+01 0.  1.
         -4   -1    0    0    0  501 -0.00000000000E+00 -0.00000000000E+00 -0.71409126047E+00  0.15894421437E+01  0.14200000000E+01 0. -1.
       1023    2    1    2    0    0  0.00000000000E+00  0.00000000000E+00  0.85229423839E+02  0.87544687403E+02  0.20000440111E+02 0.  0.
        -11    1    3    3    0    0 -0.93911517819E+01  0.34360277903E+01  0.42904468203E+02  0.44054436903E+02  0.51100000000E-03 0. -1.
         11    1    3    3    0    0  0.93911517819E+01 -0.34360277903E+01  0.42324955635E+02  0.43490250500E+02  0.51100000000E-03 0.  1.
<mgrwt>
<rscale>  0 0.20000440E+02</rscale>
<asrwt>0</asrwt>
<pdfrwt beam="1">  1        4 0.13290315E-01 0.20000440E+02</pdfrwt>
<pdfrwt beam="2">  1       -4 0.17809722E-03 0.20000440E+02</pdfrwt>
<totfact> 0.10170690E+06</totfact>
</mgrwt>
</event>
<event>
 5    1  0.1154861E-006  0.2000999E+02  0.7818608E-02  0.1745129E+00
          4   -1    0    0  501    0  0.00000000000E+00  0.00000000000E+00  0.19398331608E+02  0.19450235710E+02  0.14200000000E+01 0. -1.
         -4   -1    0    0    0  501 -0.00000000000E+00 -0.00000000000E+00 -0.50024874396E+01  0.52001231316E+01  0.14200000000E+01 0.  1.
       1023    2    1    2    0    0  0.00000000000E+00  0.00000000000E+00  0.14395844168E+02  0.24650358842E+02  0.20009994045E+02 0.  0.
        -11    1    3    3    0    0  0.75383313689E+01  0.65759924647E+01  0.74107541729E+01  0.12449473659E+02  0.51100000000E-03 0.  1.
         11    1    3    3    0    0 -0.75383313689E+01 -0.65759924647E+01  0.69850899955E+01  0.12200885182E+02  0.51100000000E-03 0. -1.
<mgrwt>
<rscale>  0 0.20009994E+02</rscale>
<asrwt>0</asrwt>
<pdfrwt beam="1">  1        4 0.30035540E-02 0.20009994E+02</pdfrwt>
<pdfrwt beam="2">  1       -4 0.78880884E-03 0.20009994E+02</pdfrwt>
<totfact> 0.12732196E+06</totfact>
</mgrwt>
</event>
<event>
 5    1  0.1180660E-006  0.2000070E+02  0.7818608E-02  0.1745314E+00
          4   -1    0    0  501    0  0.00000000000E+00  0.00000000000E+00  0.24598899206E+02  0.24639850692E+02  0.14200000000E+01 0.  1.
         -4   -1    0    0    0  501 -0.00000000000E+00 -0.00000000000E+00 -0.38957050412E+01  0.41464343438E+01  0.14200000000E+01 0. -1.
       1023    2    1    2    0    0  0.00000000000E+00  0.00000000000E+00  0.20703194165E+02  0.28786285036E+02  0.20000698927E+02 0.  0.
        -11    1    3    3    0    0 -0.28335949482E+00 -0.99963232149E+01  0.10330312078E+02  0.14377834271E+02  0.51100000000E-03 0. -1.
         11    1    3    3    0    0  0.28335949482E+00  0.99963232149E+01  0.10372882087E+02  0.14408450766E+02  0.51100000000E-03 0.  1.
<mgrwt>
<rscale>  0 0.20000699E+02</rscale>
<asrwt>0</asrwt>
<pdfrwt beam="1">  1        4 0.38068830E-02 0.20000699E+02</pdfrwt>
<pdfrwt beam="2">  1       -4 0.62177623E-03 0.20000699E+02</pdfrwt>
<totfact> 0.12518736E+06</totfact>
</mgrwt>
</event>
<event>
 4    1  0.1154861E-006  0.2001592E+02  0.7818608E-02  0.1745012E+00
          4   -1    0    0  501    0  0.00000000000E+00  0.00000000000E+00  0.28243044098E+00  0.14478145441E+01  0.14200000000E+01 0. -1.
         -4   -1    0    0    0  501 -0.00000000000E+00 -0.00000000000E+00 -0.11460195647E+03  0.11461075354E+03  0.14200000000E+01 0.  1.
        -11    1    1    2    0    0  0.96839805890E+01 -0.25218384394E+01 -0.57982818300E+02  0.58840006522E+02  0.51100000000E-03 0.  1.
         11    1    1    2    0    0 -0.96839805890E+01  0.25218384394E+01 -0.56336707725E+02  0.57218561557E+02  0.51100000000E-03 0. -1.
<mgrwt>
<rscale>  0 0.20015924E+02</rscale>
<asrwt>0</asrwt>
<pdfrwt beam="1">  1        4 0.13377256E-03 0.20015924E+02</pdfrwt>
<pdfrwt beam="2">  1       -4 0.17721380E-01 0.20015924E+02</pdfrwt>
<totfact> 0.93514050E+05</totfact>
</mgrwt>
</event>
<event>
 5    1  0.1154861E-006  0.2000281E+02  0.7818608E-02  0.1745272E+00
         -4   -1    0    0    0  501 -0.00000000000E+00  0.00000000000E+00  0.64839608748E+02  0.64855156021E+02  0.14200000000E+01 0.  1.
          4   -1    0    0  501    0  0.00000000000E+00 -0.00000000000E+00 -0.11967898081E+01  0.18570691545E+01  0.14200000000E+01 0. -1.
       1023    2    1    2    0    0  0.00000000000E+00  0.00000000000E+00  0.63642818940E+02  0.66712225176E+02  0.20002814435E+02 0.  0.
        -11    1    3    3    0    0 -0.95796801442E+00 -0.99552567200E+01  0.32013201741E+02  0.33539080564E+02  0.51100000000E-03 0. -1.
         11    1    3    3    0    0  0.95796801442E+00  0.99552567200E+01  0.31629617198E+02  0.33173144612E+02  0.51100000000E-03 0.  1.
<mgrwt>
<rscale>  0 0.20002814E+02</rscale>
<asrwt>0</asrwt>
<pdfrwt beam="2">  1        4 0.23610824E-03 0.20002814E+02</pdfrwt>
<pdfrwt beam="1">  1       -4 0.10027308E-01 0.20002814E+02</pdfrwt>
<totfact> 0.10865362E+06</totfact>
</mgrwt>
</event>
<event>
 5    1  0.1189869E-006  0.2000127E+02  0.7818608E-02  0.1745303E+00
         -4   -1    0    0    0  501 -0.00000000000E+00  0.00000000000E+00  0.94883354346E+01  0.95940038211E+01  0.14200000000E+01 0. -1.
          4   -1    0    0  501    0  0.00000000000E+00 -0.00000000000E+00 -0.10327710436E+02  0.10424874237E+02  0.14200000000E+01 0.  1.
       1023    2    1    2    0    0  0.00000000000E+00  0.00000000000E+00 -0.83937500156E+00  0.20018878058E+02  0.20001273167E+02 0.  0.
        -11    1    3    3    0    0 -0.81083767583E+01 -0.58527972809E+01 -0.31132333017E+00  0.10004895409E+02  0.51100000000E-03 0. -1.
         11    1    3    3    0    0  0.81083767583E+01  0.58527972809E+01 -0.52805167139E+00  0.10013982649E+02  0.51100000000E-03 0.  1.
<mgrwt>
<rscale>  0 0.20001273E+02</rscale>
<asrwt>0</asrwt>
<pdfrwt beam="2">  1        4 0.16044810E-02 0.20001273E+02</pdfrwt>
<pdfrwt beam="1">  1       -4 0.14753464E-02 0.20001273E+02</pdfrwt>
<totfact> 0.13011233E+06</totfact>
</mgrwt>
</event>
<event>
 5    1  0.1154861E-006  0.2000013E+02  0.7818608E-02  0.1745326E+00
         -4   -1    0    0    0  501 -0.00000000000E+00  0.00000000000E+00  0.10192250119E+02  0.10290693004E+02  0.14200000000E+01 0.  1.
          4   -1    0    0  501    0  0.00000000000E+00 -0.00000000000E+00 -0.96134992262E+01  0.97178067161E+01  0.14200000000E+01 0. -1.
       1023    2    1    2    0    0  0.00000000000E+00  0.00000000000E+00  0.57875089329E+00  0.20008499720E+02  0.20000127711E+02 0.  0.
        -11    1    3    3    0    0 -0.94056829645E+01  0.33962237613E+01  0.29768463473E+00  0.10004490205E+02  0.51100000000E-03 0.  1.
         11    1    3    3    0    0  0.94056829645E+01 -0.33962237613E+01  0.28106625856E+00  0.10004009515E+02  0.51100000000E-03 0. -1.
<mgrwt>
<rscale>  0 0.20000128E+02</rscale>
<asrwt>0</asrwt>
<pdfrwt beam="2">  1        4 0.14945961E-02 0.20000128E+02</pdfrwt>
<pdfrwt beam="1">  1       -4 0.15836347E-02 0.20000128E+02</pdfrwt>
<totfact> 0.13013371E+06</totfact>
</mgrwt>
</event>
<event>
 5    1  0.1187825E-006  0.2000167E+02  0.7818608E-02  0.1745295E+00
          4   -1    0    0  501    0  0.00000000000E+00  0.00000000000E+00  0.12826875677E+02  0.12905236908E+02  0.14200000000E+01 0. -1.
         -4   -1    0    0    0  501 -0.00000000000E+00 -0.00000000000E+00 -0.76296151737E+01  0.77606332022E+01  0.14200000000E+01 0.  1.
       1023    2    1    2    0    0  0.00000000000E+00  0.00000000000E+00  0.51972605038E+01  0.20665870110E+02  0.20001666697E+02 0.  0.
        -11    1    3    3    0    0 -0.13599268182E+01 -0.99078992603E+01  0.26278300292E+01  0.10340278508E+02  0.51100000000E-03 0. -1.
         11    1    3    3    0    0  0.13599268182E+01  0.99078992603E+01  0.25694304746E+01  0.10325591602E+02  0.51100000000E-03 0.  1.
<mgrwt>
<rscale>  0 0.20001667E+02</rscale>
<asrwt>0</asrwt>
<pdfrwt beam="1">  1        4 0.19894716E-02 0.20001667E+02</pdfrwt>
<pdfrwt beam="2">  1       -4 0.11898930E-02 0.20001667E+02</pdfrwt>
<totfact> 0.12972309E+06</totfact>
</mgrwt>
</event>
<event>
 5    1  0.1154861E-006  0.2000049E+02  0.7818608E-02  0.1745318E+00
         -4   -1    0    0    0  501 -0.00000000000E+00  0.00000000000E+00  0.41167279313E+02  0.41191762356E+02  0.14200000000E+01 0.  1.
          4   -1    0    0  501    0  0.00000000000E+00 -0.00000000000E+00 -0.21942696963E+01  0.26136601731E+01  0.14200000000E+01 0. -1.
       1023    2    1    2    0    0  0.00000000000E+00  0.00000000000E+00  0.38973009617E+02  0.43805422530E+02  0.20000489104E+02 0.  0.
        -11    1    3    3    0    0  0.91415892849E+01 -0.40536922940E+01  0.19621784623E+02  0.22023067632E+02  0.51100000000E-03 0. -1.
         11    1    3    3    0    0 -0.91415892849E+01  0.40536922940E+01  0.19351224994E+02  0.21782354898E+02  0.51100000000E-03 0.  1.
<mgrwt>
<rscale>  0 0.20000489E+02</rscale>
<asrwt>0</asrwt>
<pdfrwt beam="2">  1        4 0.37172408E-03 0.20000489E+02</pdfrwt>
<pdfrwt beam="1">  1       -4 0.63675716E-02 0.20000489E+02</pdfrwt>
<totfact> 0.11788374E+06</totfact>
</mgrwt>
</event>
<event>
 5    1  0.1154861E-006  0.2000028E+02  0.7818608E-02  0.1745322E+00
          4   -1    0    0  501    0  0.00000000000E+00  0.00000000000E+00  0.95032055790E+01  0.96087104378E+01  0.14200000000E+01 0.  1.
         -4   -1    0    0    0  501 -0.00000000000E+00 -0.00000000000E+00 -0.10310537796E+02  0.10407861915E+02  0.14200000000E+01 0. -1.
       1023    2    1    2    0    0  0.00000000000E+00  0.00000000000E+00 -0.80733221742E+00  0.20016572353E+02  0.20000284585E+02 0.  0.
        -11    1    3    3    0    0 -0.69452911975E+01  0.71947368879E+01 -0.44290134777E+00  0.10009868659E+02  0.51100000000E-03 0. -1.
         11    1    3    3    0    0  0.69452911975E+01 -0.71947368879E+01 -0.36443086964E+00  0.10006703694E+02  0.51100000000E-03 0.  1.
<mgrwt>
<rscale>  0 0.20000285E+02</rscale>
<asrwt>0</asrwt>
<pdfrwt beam="1">  1        4 0.14776339E-02 0.20000285E+02</pdfrwt>
<pdfrwt beam="2">  1       -4 0.16018388E-02 0.20000285E+02</pdfrwt>
<totfact> 0.13012683E+06</totfact>
</mgrwt>
</event>
<event>
 5    1  0.1154861E-006  0.2000127E+02  0.7818608E-02  0.1745303E+00
         -4   -1    0    0    0  501 -0.00000000000E+00  0.00000000000E+00  0.43201485815E+00  0.14842630621E+01  0.14200000000E+01 0. -1.
          4   -1    0    0  501    0  0.00000000000E+00 -0.00000000000E+00 -0.10332247453E+03  0.10333223187E+03  0.14200000000E+01 0.  1.
       1023    2    1    2    0    0  0.00000000000E+00  0.00000000000E+00 -0.10289045967E+03  0.10481649493E+03  0.20001272913E+02 0.  0.
        -11    1    3    3    0    0 -0.82891892257E+01 -0.55948067360E+01 -0.51369497587E+02  0.52333906820E+02  0.51100000000E-03 0.  1.
         11    1    3    3    0    0  0.82891892257E+01  0.55948067360E+01 -0.51520962084E+02  0.52482588111E+02  0.51100000000E-03 0. -1.
<mgrwt>
<rscale>  0 0.20001273E+02</rscale>
<asrwt>0</asrwt>
<pdfrwt beam="2">  1        4 0.15977449E-01 0.20001273E+02</pdfrwt>
<pdfrwt beam="1">  1       -4 0.14815664E-03 0.20001273E+02</pdfrwt>
<totfact> 0.96649830E+05</totfact>
</mgrwt>
</event>
<event>
 5    1  0.1154861E-006  0.2000219E+02  0.7818608E-02  0.1745285E+00
         -4   -1    0    0    0  501 -0.00000000000E+00  0.00000000000E+00  0.69904129252E+02  0.69918550375E+02  0.14200000000E+01 0.  1.
          4   -1    0    0  501    0  0.00000000000E+00 -0.00000000000E+00 -0.10602954646E+01  0.17721812752E+01  0.14200000000E+01 0. -1.
       1023    2    1    2    0    0  0.00000000000E+00  0.00000000000E+00  0.68843833787E+02  0.71690731650E+02  0.20002188729E+02 0.  0.
        -11    1    3    3    0    0 -0.99099113741E+01 -0.13473972471E+01  0.34392922578E+02  0.35817522897E+02  0.51100000000E-03 0. -1.
         11    1    3    3    0    0  0.99099113741E+01  0.13473972471E+01  0.34450911209E+02  0.35873208752E+02  0.51100000000E-03 0.  1.
<mgrwt>
<rscale>  0 0.20002189E+02</rscale>
<asrwt>0</asrwt>
<pdfrwt beam="2">  1        4 0.21899219E-03 0.20002189E+02</pdfrwt>
<pdfrwt beam="1">  1       -4 0.10810349E-01 0.20002189E+02</pdfrwt>
<totfact> 0.10689168E+06</totfact>
</mgrwt>
</event>
<event>
 5    1  0.1154861E-006  0.2000347E+02  0.7818608E-02  0.1745259E+00
          4   -1    0    0  501    0  0.00000000000E+00  0.00000000000E+00  0.11120808747E+03  0.11121715299E+03  0.14200000000E+01 0. -1.
         -4   -1    0    0    0  501 -0.00000000000E+00 -0.00000000000E+00 -0.32425360478E+00  0.14565508574E+01  0.14200000000E+01 0.  1.
       1023    2    1    2    0    0  0.00000000000E+00  0.00000000000E+00  0.11088383387E+03  0.11267370385E+03  0.20003472838E+02 0.  0.
        -11    1    3    3    0    0  0.72277603768E+01 -0.69125276242E+01  0.56037305311E+02  0.56922782302E+02  0.51100000000E-03 0.  1.
         11    1    3    3    0    0 -0.72277603768E+01  0.69125276242E+01  0.54846528554E+02  0.55750921543E+02  0.51100000000E-03 0. -1.
<mgrwt>
<rscale>  0 0.20003473E+02</rscale>
<asrwt>0</asrwt>
<pdfrwt beam="1">  1        4 0.17196734E-01 0.20003473E+02</pdfrwt>
<pdfrwt beam="2">  1       -4 0.13768231E-03 0.20003473E+02</pdfrwt>
<totfact> 0.94511066E+05</totfact>
</mgrwt>
</event>
<event>
 5    1  0.1154861E-006  0.2000170E+02  0.7818608E-02  0.1745294E+00
         -4   -1    0    0    0  501 -0.00000000000E+00  0.00000000000E+00  0.58919503077E+02  0.58936612075E+02  0.14200000000E+01 0. -1.
          4   -1    0    0  501    0  0.00000000000E+00 -0.00000000000E+00 -0.13800829627E+01  0.19801588280E+01  0.14200000000E+01 0.  1.
       1023    2    1    2    0    0  0.00000000000E+00  0.00000000000E+00  0.57539420114E+02  0.60916770903E+02  0.20001702681E+02 0.  0.
        -11    1    3    3    0    0 -0.82912850601E+01 -0.55919141450E+01  0.28629629437E+02  0.30326071189E+02  0.51100000000E-03 0.  1.
         11    1    3    3    0    0  0.82912850601E+01  0.55919141450E+01  0.28909790677E+02  0.30590699714E+02  0.51100000000E-03 0. -1.
<mgrwt>
<rscale>  0 0.20001703E+02</rscale>
<asrwt>0</asrwt>
<pdfrwt beam="2">  1        4 0.25979630E-03 0.20001703E+02</pdfrwt>
<pdfrwt beam="1">  1       -4 0.91120118E-02 0.20001703E+02</pdfrwt>
<totfact> 0.11081899E+06</totfact>
</mgrwt>
</event>
<event>
 5    1  0.1154861E-006  0.2000032E+02  0.7818608E-02  0.1745322E+00
          4   -1    0    0  501    0  0.00000000000E+00  0.00000000000E+00  0.25315814867E+02  0.25355608499E+02  0.14200000000E+01 0.  1.
         -4   -1    0    0    0  501 -0.00000000000E+00 -0.00000000000E+00 -0.37782106854E+01  0.40362452829E+01  0.14200000000E+01 0. -1.
       1023    2    1    2    0    0  0.00000000000E+00  0.00000000000E+00  0.21537604181E+02  0.29391853782E+02  0.20000316870E+02 0.  0.
        -11    1    3    3    0    0  0.93426064325E+00  0.99563953358E+01  0.10735373770E+02  0.14671431467E+02  0.51100000000E-03 0.  1.
         11    1    3    3    0    0 -0.93426064325E+00 -0.99563953358E+01  0.10802230411E+02  0.14720422316E+02  0.51100000000E-03 0. -1.
<mgrwt>
<rscale>  0 0.20000317E+02</rscale>
<asrwt>0</asrwt>
<pdfrwt beam="1">  1        4 0.39176506E-02 0.20000317E+02</pdfrwt>
<pdfrwt beam="2">  1       -4 0.60417306E-03 0.20000317E+02</pdfrwt>
<totfact> 0.12487225E+06</totfact>
</mgrwt>
</event>
<event>
 5    1  0.1154861E-006  0.2000138E+02  0.7818608E-02  0.1745301E+00
          4   -1    0    0  501    0  0.00000000000E+00  0.00000000000E+00  0.11038580752E+01  0.17985835122E+01  0.14200000000E+01 0. -1.
         -4   -1    0    0    0  501 -0.00000000000E+00 -0.00000000000E+00 -0.68213106922E+02  0.68227885472E+02  0.14200000000E+01 0.  1.
       1023    2    1    2    0    0  0.00000000000E+00  0.00000000000E+00 -0.67109248847E+02  0.70026468984E+02  0.20001376892E+02 0.  0.
        -11    1    3    3    0    0  0.97107028223E+01 -0.23905356296E+01 -0.33683701600E+02  0.35136934465E+02  0.51100000000E-03 0. -1.
         11    1    3    3    0    0 -0.97107028223E+01  0.23905356296E+01 -0.33425547247E+02  0.34889534519E+02  0.51100000000E-03 0.  1.
<mgrwt>
<rscale>  0 0.20001377E+02</rscale>
<asrwt>0</asrwt>
<pdfrwt beam="1">  1        4 0.22440160E-03 0.20001377E+02</pdfrwt>
<pdfrwt beam="2">  1       -4 0.10548899E-01 0.20001377E+02</pdfrwt>
<totfact> 0.10748381E+06</totfact>
</mgrwt>
</event>
<event>
 5    1  0.1194265E-006  0.2000108E+02  0.7818608E-02  0.1745307E+00
         -4   -1    0    0    0  501 -0.00000000000E+00  0.00000000000E+00  0.19274346617E+02  0.19326583700E+02  0.14200000000E+01 0. -1.
          4   -1    0    0  501    0  0.00000000000E+00 -0.00000000000E+00 -0.50311353922E+01  0.52276881444E+01  0.14200000000E+01 0.  1.
       1023    2    1    2    0    0  0.00000000000E+00  0.00000000000E+00  0.14243211224E+02  0.24554271844E+02  0.20001079966E+02 0.  0.
        -11    1    3    3    0    0  0.93000781909E+01  0.36766675444E+01  0.70746796005E+01  0.12249915522E+02  0.51100000000E-03 0.  1.
         11    1    3    3    0    0 -0.93000781909E+01 -0.36766675444E+01  0.71685316240E+01  0.12304356322E+02  0.51100000000E-03 0. -1.
<mgrwt>
<rscale>  0 0.20001080E+02</rscale>
<asrwt>0</asrwt>
<pdfrwt beam="2">  1        4 0.79315851E-03 0.20001080E+02</pdfrwt>
<pdfrwt beam="1">  1       -4 0.29844218E-02 0.20001080E+02</pdfrwt>
<totfact> 0.12749149E+06</totfact>
</mgrwt>
</event>
<event>
 5    1  0.1154861E-006  0.2000027E+02  0.7818608E-02  0.1745323E+00
         -4   -1    0    0    0  501 -0.00000000000E+00  0.00000000000E+00  0.26738437131E+02  0.26776116601E+02  0.14200000000E+01 0.  1.
          4   -1    0    0  501    0  0.00000000000E+00 -0.00000000000E+00 -0.35633683580E+01  0.38358824349E+01  0.14200000000E+01 0. -1.
       1023    2    1    2    0    0  0.00000000000E+00  0.00000000000E+00  0.23175068773E+02  0.30611999036E+02  0.20000266806E+02 0.  0.
        -11    1    3    3    0    0 -0.99625835429E+01 -0.86465726773E+00  0.11519690197E+02  0.15254637509E+02  0.51100000000E-03 0.  1.
         11    1    3    3    0    0  0.99625835429E+01  0.86465726773E+00  0.11655378576E+02  0.15357361526E+02  0.51100000000E-03 0. -1.
<mgrwt>
<rscale>  0 0.20000267E+02</rscale>
<asrwt>0</asrwt>
<pdfrwt beam="2">  1        4 0.57207155E-03 0.20000267E+02</pdfrwt>
<pdfrwt beam="1">  1       -4 0.41374668E-02 0.20000267E+02</pdfrwt>
<totfact> 0.12423561E+06</totfact>
</mgrwt>
</event>
<event>
 4    1  0.1154861E-006  0.2005724E+02  0.7818608E-02  0.1744192E+00
         -4   -1    0    0    0  501 -0.00000000000E+00  0.00000000000E+00  0.15389186458E+01  0.20939605055E+01  0.14200000000E+01 0. -1.
          4   -1    0    0  501    0  0.00000000000E+00 -0.00000000000E+00 -0.54802700420E+02  0.54821094237E+02  0.14200000000E+01 0.  1.
        -11    1    1    2    0    0 -0.42112674723E+01  0.90892773808E+01 -0.25290334798E+02  0.27202036165E+02  0.51100000000E-03 0. -1.
         11    1    1    2    0    0  0.42112674723E+01 -0.90892773808E+01 -0.27973446976E+02  0.29713018578E+02  0.51100000000E-03 0.  1.
<mgrwt>
<rscale>  0 0.20057243E+02</rscale>
<asrwt>0</asrwt>
<pdfrwt beam="2">  1        4 0.84752939E-02 0.20057243E+02</pdfrwt>
<pdfrwt beam="1">  1       -4 0.28086719E-03 0.20057243E+02</pdfrwt>
<totfact> 0.11174267E+06</totfact>
</mgrwt>
</event>
<event>
 5    1  0.1154861E-006  0.2000297E+02  0.7818608E-02  0.1745269E+00
         -4   -1    0    0    0  501 -0.00000000000E+00  0.00000000000E+00  0.72011947068E+02  0.72025946162E+02  0.14200000000E+01 0.  1.
          4   -1    0    0  501    0  0.00000000000E+00 -0.00000000000E+00 -0.10082562855E+01  0.17415455025E+01  0.14200000000E+01 0. -1.
       1023    2    1    2    0    0  0.00000000000E+00  0.00000000000E+00  0.71003690783E+02  0.73767491665E+02  0.20002967823E+02 0.  0.
        -11    1    3    3    0    0 -0.20169156958E+01 -0.97946525413E+01  0.36102325639E+02  0.37461728259E+02  0.51100000000E-03 0.  1.
         11    1    3    3    0    0  0.20169156958E+01  0.97946525413E+01  0.34901365143E+02  0.36305763406E+02  0.51100000000E-03 0. -1.
<mgrwt>
<rscale>  0 0.20002968E+02</rscale>
<asrwt>0</asrwt>
<pdfrwt beam="2">  1        4 0.21260003E-03 0.20002968E+02</pdfrwt>
<pdfrwt beam="1">  1       -4 0.11136247E-01 0.20002968E+02</pdfrwt>
<totfact> 0.10616599E+06</totfact>
</mgrwt>
</event>
<event>
 5    1  0.1155063E-006  0.2000080E+02  0.7818608E-02  0.1745312E+00
          4   -1    0    0  501    0  0.00000000000E+00  0.00000000000E+00  0.38949894957E+01  0.41457620736E+01  0.14200000000E+01 0. -1.
         -4   -1    0    0    0  501 -0.00000000000E+00 -0.00000000000E+00 -0.24603409014E+02  0.24644353006E+02  0.14200000000E+01 0.  1.
       1023    2    1    2    0    0  0.00000000000E+00  0.00000000000E+00 -0.20708419518E+02  0.28790115080E+02  0.20000802168E+02 0.  0.
        -11    1    3    3    0    0 -0.77953981795E+01  0.62640466946E+01 -0.10410104370E+02  0.14435261931E+02  0.51100000000E-03 0. -1.
         11    1    3    3    0    0  0.77953981795E+01 -0.62640466946E+01 -0.10298315148E+02  0.14354853149E+02  0.51100000000E-03 0.  1.
<mgrwt>
<rscale>  0 0.20000802E+02</rscale>
<asrwt>0</asrwt>
<pdfrwt beam="1">  1        4 0.62166890E-03 0.20000802E+02</pdfrwt>
<pdfrwt beam="2">  1       -4 0.38075795E-02 0.20000802E+02</pdfrwt>
<totfact> 0.12518401E+06</totfact>
</mgrwt>
</event>
<event>
 5    1  0.1174460E-006  0.2000059E+02  0.7818608E-02  0.1745316E+00
         -4   -1    0    0    0  501 -0.00000000000E+00  0.00000000000E+00  0.56549637851E+01  0.58305244541E+01  0.14200000000E+01 0. -1.
          4   -1    0    0  501    0  0.00000000000E+00 -0.00000000000E+00 -0.17209052054E+02  0.17267538116E+02  0.14200000000E+01 0.  1.
       1023    2    1    2    0    0  0.00000000000E+00  0.00000000000E+00 -0.11554088269E+02  0.23098062571E+02  0.20000588461E+02 0.  0.
        -11    1    3    3    0    0  0.93853249964E+01 -0.34526784792E+01 -0.58046275319E+01  0.11562829023E+02  0.51100000000E-03 0. -1.
         11    1    3    3    0    0 -0.93853249964E+01  0.34526784792E+01 -0.57494607372E+01  0.11535233548E+02  0.51100000000E-03 0.  1.
<mgrwt>
<rscale>  0 0.20000588E+02</rscale>
<asrwt>0</asrwt>
<pdfrwt beam="2">  1        4 0.26655500E-02 0.20000588E+02</pdfrwt>
<pdfrwt beam="1">  1       -4 0.88799803E-03 0.20000588E+02</pdfrwt>
<totfact> 0.12832199E+06</totfact>
</mgrwt>
</event>
<event>
 5    1  0.1154861E-006  0.2000008E+02  0.7818608E-02  0.1745327E+00
          4   -1    0    0  501    0  0.00000000000E+00  0.00000000000E+00  0.94647121822E+00  0.17065191962E+01  0.14200000000E+01 0. -1.
         -4   -1    0    0    0  501 -0.00000000000E+00 -0.00000000000E+00 -0.74618475631E+02  0.74631985807E+02  0.14200000000E+01 0.  1.
       1023    2    1    2    0    0  0.00000000000E+00  0.00000000000E+00 -0.73672004413E+02  0.76338505003E+02  0.20000077798E+02 0.  0.
        -11    1    3    3    0    0  0.74587648798E+01 -0.66608500699E+01 -0.36935574135E+02  0.38265346387E+02  0.51100000000E-03 0.  1.
         11    1    3    3    0    0 -0.74587648798E+01  0.66608500699E+01 -0.36736430278E+02  0.38073158617E+02  0.51100000000E-03 0. -1.
<mgrwt>
<rscale>  0 0.20000078E+02</rscale>
<asrwt>0</asrwt>
<pdfrwt beam="1">  1        4 0.20511549E-03 0.20000078E+02</pdfrwt>
<pdfrwt beam="2">  1       -4 0.11539267E-01 0.20000078E+02</pdfrwt>
<totfact> 0.10532422E+06</totfact>
</mgrwt>
</event>
<event>
 5    1  0.1154861E-006  0.2000176E+02  0.7818608E-02  0.1745293E+00
         -4   -1    0    0    0  501 -0.00000000000E+00  0.00000000000E+00  0.14275671565E+02  0.14346121379E+02  0.14200000000E+01 0.  1.
          4   -1    0    0  501    0  0.00000000000E+00 -0.00000000000E+00 -0.68454215570E+01  0.69911512852E+01  0.14200000000E+01 0. -1.
       1023    2    1    2    0    0  0.00000000000E+00  0.00000000000E+00  0.74302500079E+01  0.21337272664E+02  0.20001764662E+02 0.  0.
        -11    1    3    3    0    0  0.30111155073E+01  0.95364048768E+01  0.38094153628E+01  0.10701470938E+02  0.51100000000E-03 0.  1.
         11    1    3    3    0    0 -0.30111155073E+01 -0.95364048768E+01  0.36208346451E+01  0.10635801726E+02  0.51100000000E-03 0. -1.
<mgrwt>
<rscale>  0 0.20001765E+02</rscale>
<asrwt>0</asrwt>
<pdfrwt beam="2">  1        4 0.10697710E-02 0.20001765E+02</pdfrwt>
<pdfrwt beam="1">  1       -4 0.22128864E-02 0.20001765E+02</pdfrwt>
<totfact> 0.12932573E+06</totfact>
</mgrwt>
</event>
<event>
 5    1  0.1154861E-006  0.2000417E+02  0.7818608E-02  0.1745245E+00
          4   -1    0    0  501    0  0.00000000000E+00  0.00000000000E+00  0.28418529636E+01  0.31768739772E+01  0.14200000000E+01 0. -1.
         -4   -1    0    0    0  501 -0.00000000000E+00 -0.00000000000E+00 -0.32892290759E+02  0.32922928050E+02  0.14200000000E+01 0.  1.
       1023    2    1    2    0    0  0.00000000000E+00  0.00000000000E+00 -0.30050437795E+02  0.36099802027E+02  0.20004171932E+02 0.  0.
        -11    1    3    3    0    0  0.97433230013E+01  0.22600741197E+01 -0.15093824571E+02  0.18107010205E+02  0.51100000000E-03 0. -1.
         11    1    3    3    0    0 -0.97433230013E+01 -0.22600741197E+01 -0.14956613225E+02  0.17992791822E+02  0.51100000000E-03 0.  1.
<mgrwt>
<rscale>  0 0.20004172E+02</rscale>
<asrwt>0</asrwt>
<pdfrwt beam="1">  1        4 0.46533573E-03 0.20004172E+02</pdfrwt>
<pdfrwt beam="2">  1       -4 0.50884797E-02 0.20004172E+02</pdfrwt>
<totfact> 0.12143018E+06</totfact>
</mgrwt>
</event>
<event>
 5    1  0.1154861E-006  0.2000493E+02  0.7818608E-02  0.1745230E+00
         -4   -1    0    0    0  501 -0.00000000000E+00  0.00000000000E+00  0.74683050257E+02  0.74696548754E+02  0.14200000000E+01 0.  1.
          4   -1    0    0  501    0  0.00000000000E+00 -0.00000000000E+00 -0.94583103373E+00  0.17061642196E+01  0.14200000000E+01 0. -1.
       1023    2    1    2    0    0  0.00000000000E+00  0.00000000000E+00  0.73737219223E+02  0.76402712973E+02  0.20004925665E+02 0.  0.
        -11    1    3    3    0    0 -0.80212476501E+01 -0.59748460654E+01  0.36485487256E+02  0.37831600283E+02  0.51100000000E-03 0. -1.
         11    1    3    3    0    0  0.80212476501E+01  0.59748460654E+01  0.37251731967E+02  0.38571112691E+02  0.51100000000E-03 0.  1.
<mgrwt>
<rscale>  0 0.20004926E+02</rscale>
<asrwt>0</asrwt>
<pdfrwt beam="2">  1        4 0.20503794E-03 0.20004926E+02</pdfrwt>
<pdfrwt beam="1">  1       -4 0.11549228E-01 0.20004926E+02</pdfrwt>
<totfact> 0.10525151E+06</totfact>
</mgrwt>
</event>
<event>
 5    1  0.1154861E-006  0.2000055E+02  0.7818608E-02  0.1745317E+00
         -4   -1    0    0    0  501 -0.00000000000E+00  0.00000000000E+00  0.26059590016E+01  0.29677301626E+01  0.14200000000E+01 0.  1.
          4   -1    0    0  501    0  0.00000000000E+00 -0.00000000000E+00 -0.35507960185E+02  0.35536342475E+02  0.14200000000E+01 0. -1.
       1023    2    1    2    0    0  0.00000000000E+00  0.00000000000E+00 -0.32902001184E+02  0.38504072638E+02  0.20000548188E+02 0.  0.
        -11    1    3    3    0    0  0.74262917100E+01 -0.66973303847E+01 -0.16524025721E+02  0.19314436806E+02  0.51100000000E-03 0. -1.
         11    1    3    3    0    0 -0.74262917100E+01  0.66973303847E+01 -0.16377975462E+02  0.19189635831E+02  0.51100000000E-03 0.  1.
<mgrwt>
<rscale>  0 0.20000548E+02</rscale>
<asrwt>0</asrwt>
<pdfrwt beam="2">  1        4 0.54927746E-02 0.20000548E+02</pdfrwt>
<pdfrwt beam="1">  1       -4 0.43092860E-03 0.20000548E+02</pdfrwt>
<totfact> 0.12032146E+06</totfact>
</mgrwt>
</event>
<event>
 5    1  0.1157827E-006  0.2000080E+02  0.7818608E-02  0.1745312E+00
         -4   -1    0    0    0  501 -0.00000000000E+00  0.00000000000E+00  0.26324534863E+01  0.29910217915E+01  0.14200000000E+01 0. -1.
          4   -1    0    0  501    0  0.00000000000E+00 -0.00000000000E+00 -0.35194260112E+02  0.35222895180E+02  0.14200000000E+01 0.  1.
       1023    2    1    2    0    0  0.00000000000E+00  0.00000000000E+00 -0.32561806626E+02  0.38213916971E+02  0.20000804972E+02 0.  0.
        -11    1    3    3    0    0  0.16445475912E+00  0.99990051308E+01 -0.16223563973E+02  0.19058100042E+02  0.51100000000E-03 0. -1.
         11    1    3    3    0    0 -0.16445475912E+00 -0.99990051308E+01 -0.16338242653E+02  0.19155816929E+02  0.51100000000E-03 0.  1.
<mgrwt>
<rscale>  0 0.20000805E+02</rscale>
<asrwt>0</asrwt>
<pdfrwt beam="2">  1        4 0.54442861E-02 0.20000805E+02</pdfrwt>
<pdfrwt beam="1">  1       -4 0.43477774E-03 0.20000805E+02</pdfrwt>
<totfact> 0.12045585E+06</totfact>
</mgrwt>
</event>
<event>
 5    1  0.1154861E-006  0.2000052E+02  0.7818608E-02  0.1745318E+00
         -4   -1    0    0    0  501 -0.00000000000E+00  0.00000000000E+00  0.36032568588E+02  0.36060537975E+02  0.14200000000E+01 0. -1.
          4   -1    0    0  501    0  0.00000000000E+00 -0.00000000000E+00 -0.25627383292E+01  0.29298511471E+01  0.14200000000E+01 0.  1.
       1023    2    1    2    0    0  0.00000000000E+00  0.00000000000E+00  0.33469830259E+02  0.38990389122E+02  0.20000522652E+02 0.  0.
        -11    1    3    3    0    0  0.24339158979E+01 -0.96993836475E+01  0.16624007950E+02  0.19399990472E+02  0.51100000000E-03 0.  1.
         11    1    3    3    0    0 -0.24339158979E+01  0.96993836475E+01  0.16845822309E+02  0.19590398650E+02  0.51100000000E-03 0. -1.
<mgrwt>
<rscale>  0 0.20000523E+02</rscale>
<asrwt>0</asrwt>
<pdfrwt beam="2">  1        4 0.42465836E-03 0.20000523E+02</pdfrwt>
<pdfrwt beam="1">  1       -4 0.55738632E-02 0.20000523E+02</pdfrwt>
<totfact> 0.12009227E+06</totfact>
</mgrwt>
</event>
<event>
 5    1  0.1219149E-006  0.2000110E+02  0.7818608E-02  0.1745306E+00
         -4   -1    0    0    0  501 -0.00000000000E+00  0.00000000000E+00  0.99337247139E+01  0.10034704116E+02  0.14200000000E+01 0.  1.
          4   -1    0    0  501    0  0.00000000000E+00 -0.00000000000E+00 -0.98648333582E+01  0.99665107829E+01  0.14200000000E+01 0. -1.
       1023    2    1    2    0    0  0.00000000000E+00  0.00000000000E+00  0.68891355670E-01  0.20001214899E+02  0.20001096255E+02 0.  0.
        -11    1    3    3    0    0 -0.33744924027E+01 -0.94138558093E+01  0.89965521087E-01  0.10000798680E+02  0.51100000000E-03 0.  1.
         11    1    3    3    0    0  0.33744924027E+01  0.94138558093E+01 -0.21074165418E-01  0.10000416219E+02  0.51100000000E-03 0. -1.
<mgrwt>
<rscale>  0 0.20001096E+02</rscale>
<asrwt>0</asrwt>
<pdfrwt beam="2">  1        4 0.15332556E-02 0.20001096E+02</pdfrwt>
<pdfrwt beam="1">  1       -4 0.15438543E-02 0.20001096E+02</pdfrwt>
<totfact> 0.13012516E+06</totfact>
</mgrwt>
</event>
<event>
 5    1  0.1154861E-006  0.2000670E+02  0.7818608E-02  0.1745195E+00
         -4   -1    0    0    0  501 -0.00000000000E+00  0.00000000000E+00  0.43101930319E+01  0.45380793264E+01  0.14200000000E+01 0.  1.
          4   -1    0    0  501    0  0.00000000000E+00 -0.00000000000E+00 -0.22367439294E+02  0.22412468418E+02  0.14200000000E+01 0. -1.
       1023    2    1    2    0    0  0.00000000000E+00  0.00000000000E+00 -0.18057246263E+02  0.26950547744E+02  0.20006695908E+02 0.  0.
        -11    1    3    3    0    0  0.92601902259E+01 -0.37816831839E+01 -0.91920546435E+01  0.13584775285E+02  0.51100000000E-03 0.  1.
         11    1    3    3    0    0 -0.92601902259E+01  0.37816831839E+01 -0.88651916190E+01  0.13365772459E+02  0.51100000000E-03 0. -1.
<mgrwt>
<rscale>  0 0.20006696E+02</rscale>
<asrwt>0</asrwt>
<pdfrwt beam="2">  1        4 0.34621379E-02 0.20006696E+02</pdfrwt>
<pdfrwt beam="1">  1       -4 0.68410013E-03 0.20006696E+02</pdfrwt>
<totfact> 0.12609591E+06</totfact>
</mgrwt>
</event>
<event>
 5    1  0.1154861E-006  0.2000037E+02  0.7818608E-02  0.1745321E+00
          4   -1    0    0  501    0  0.00000000000E+00  0.00000000000E+00  0.22901754519E+02  0.22945735117E+02  0.14200000000E+01 0.  1.
         -4   -1    0    0    0  501 -0.00000000000E+00 -0.00000000000E+00 -0.42016240002E+01  0.44350923597E+01  0.14200000000E+01 0. -1.
       1023    2    1    2    0    0  0.00000000000E+00  0.00000000000E+00  0.18700130519E+02  0.27380827477E+02  0.20000370793E+02 0.  0.
        -11    1    3    3    0    0 -0.56347351021E+01  0.82614898381E+01  0.93015918174E+01  0.13657308103E+02  0.51100000000E-03 0. -1.
         11    1    3    3    0    0  0.56347351021E+01 -0.82614898381E+01  0.93985387015E+01  0.13723519374E+02  0.51100000000E-03 0.  1.
<mgrwt>
<rscale>  0 0.20000371E+02</rscale>
<asrwt>0</asrwt>
<pdfrwt beam="1">  1        4 0.35446890E-02 0.20000371E+02</pdfrwt>
<pdfrwt beam="2">  1       -4 0.66774594E-03 0.20000371E+02</pdfrwt>
<totfact> 0.12594393E+06</totfact>
</mgrwt>
</event>
<event>
 4    1  0.1154861E-006  0.2004928E+02  0.7818608E-02  0.1744350E+00
         -4   -1    0    0    0  501 -0.00000000000E+00  0.00000000000E+00  0.91417249796E+01  0.92513531769E+01  0.14200000000E+01 0. -1.
          4   -1    0    0  501    0  0.00000000000E+00 -0.00000000000E+00 -0.10770804249E+02  0.10864005899E+02  0.14200000000E+01 0.  1.
        -11    1    1    2    0    0 -0.14418363015E+01 -0.99077818592E+01 -0.13165979644E+01  0.10098339653E+02  0.51100000000E-03 0. -1.
         11    1    1    2    0    0  0.14418363015E+01  0.99077818592E+01 -0.31248130514E+00  0.10017019423E+02  0.51100000000E-03 0.  1.
<mgrwt>
<rscale>  0 0.20049284E+02</rscale>
<asrwt>0</asrwt>
<pdfrwt beam="2">  1        4 0.16726491E-02 0.20049284E+02</pdfrwt>
<pdfrwt beam="1">  1       -4 0.14220215E-02 0.20049284E+02</pdfrwt>
<totfact> 0.12941977E+06</totfact>
</mgrwt>
</event>
<event>
 5    1  0.1154861E-006  0.2000088E+02  0.7818608E-02  0.1745311E+00
         -4   -1    0    0    0  501 -0.00000000000E+00  0.00000000000E+00  0.19795468249E+01  0.24361866989E+01  0.14200000000E+01 0. -1.
          4   -1    0    0  501    0  0.00000000000E+00 -0.00000000000E+00 -0.44827540484E+02  0.44850025483E+02  0.14200000000E+01 0.  1.
       1023    2    1    2    0    0  0.00000000000E+00  0.00000000000E+00 -0.42847993659E+02  0.47286212182E+02  0.20000882528E+02 0.  0.
        -11    1    3    3    0    0  0.86951578048E+00 -0.99625565490E+01 -0.21460203482E+02  0.23675914437E+02  0.51100000000E-03 0. -1.
         11    1    3    3    0    0 -0.86951578048E+00  0.99625565490E+01 -0.21387790177E+02  0.23610297745E+02  0.51100000000E-03 0.  1.
<mgrwt>
<rscale>  0 0.20000883E+02</rscale>
<asrwt>0</asrwt>
<pdfrwt beam="2">  1        4 0.69333997E-02 0.20000883E+02</pdfrwt>
<pdfrwt beam="1">  1       -4 0.34140146E-03 0.20000883E+02</pdfrwt>
<totfact> 0.11634850E+06</totfact>
</mgrwt>
</event>
<event>
 5    1  0.1154861E-006  0.2000779E+02  0.7818608E-02  0.1745173E+00
          4   -1    0    0  501    0  0.00000000000E+00  0.00000000000E+00  0.64536447290E+00  0.15597741192E+01  0.14200000000E+01 0. -1.
         -4   -1    0    0    0  501 -0.00000000000E+00 -0.00000000000E+00 -0.89845536457E+02  0.89856757237E+02  0.14200000000E+01 0.  1.
       1023    2    1    2    0    0  0.00000000000E+00  0.00000000000E+00 -0.89200171984E+02  0.91416531357E+02  0.20007786567E+02 0.  0.
        -11    1    3    3    0    0 -0.15824267289E+01 -0.98773645923E+01 -0.45089527258E+02  0.46185840625E+02  0.51100000000E-03 0.  1.
         11    1    3    3    0    0  0.15824267289E+01  0.98773645923E+01 -0.44110644726E+02  0.45230690732E+02  0.51100000000E-03 0. -1.
<mgrwt>
<rscale>  0 0.20007787E+02</rscale>
<asrwt>0</asrwt>
<pdfrwt beam="1">  1        4 0.17048925E-03 0.20007787E+02</pdfrwt>
<pdfrwt beam="2">  1       -4 0.13893587E-01 0.20007787E+02</pdfrwt>
<totfact> 0.10044957E+06</totfact>
</mgrwt>
</event>
<event>
 5    1  0.1154861E-006  0.2000059E+02  0.7818608E-02  0.1745316E+00
          4   -1    0    0  501    0  0.00000000000E+00  0.00000000000E+00  0.54319988871E+02  0.54338546088E+02  0.14200000000E+01 0. -1.
         -4   -1    0    0    0  501 -0.00000000000E+00 -0.00000000000E+00 -0.15454781726E+01  0.20987860258E+01  0.14200000000E+01 0.  1.
       1023    2    1    2    0    0  0.00000000000E+00  0.00000000000E+00  0.52774510699E+02  0.56437332114E+02  0.20000586908E+02 0.  0.
        -11    1    3    3    0    0  0.61068572882E+01 -0.79187322564E+01  0.26602940358E+02  0.28420352961E+02  0.51100000000E-03 0. -1.
         11    1    3    3    0    0 -0.61068572882E+01  0.79187322564E+01  0.26171570341E+02  0.28016979153E+02  0.51100000000E-03 0.  1.
<mgrwt>
<rscale>  0 0.20000587E+02</rscale>
<asrwt>0</asrwt>
<pdfrwt beam="1">  1        4 0.84009125E-02 0.20000587E+02</pdfrwt>
<pdfrwt beam="2">  1       -4 0.28175544E-03 0.20000587E+02</pdfrwt>
<totfact> 0.11256983E+06</totfact>
</mgrwt>
</event>
<event>
 5    1  0.1184208E-006  0.2000126E+02  0.7818608E-02  0.1745303E+00
         -4   -1    0    0    0  501 -0.00000000000E+00  0.00000000000E+00  0.17339823114E+01  0.22412261502E+01  0.14200000000E+01 0. -1.
          4   -1    0    0  501    0  0.00000000000E+00 -0.00000000000E+00 -0.49799532572E+02  0.49819773629E+02  0.14200000000E+01 0.  1.
       1023    2    1    2    0    0  0.00000000000E+00  0.00000000000E+00 -0.48065550261E+02  0.52060999779E+02  0.20001264362E+02 0.  0.
        -11    1    3    3    0    0  0.91055458196E+01 -0.41340841424E+01 -0.23759442496E+02  0.25778144315E+02  0.51100000000E-03 0.  1.
         11    1    3    3    0    0 -0.91055458196E+01  0.41340841424E+01 -0.24306107765E+02  0.26282855464E+02  0.51100000000E-03 0. -1.
<mgrwt>
<rscale>  0 0.20001264E+02</rscale>
<asrwt>0</asrwt>
<pdfrwt beam="2">  1        4 0.77020413E-02 0.20001264E+02</pdfrwt>
<pdfrwt beam="1">  1       -4 0.30734231E-03 0.20001264E+02</pdfrwt>
<totfact> 0.11432945E+06</totfact>
</mgrwt>
</event>
<event>
 5    1  0.1167681E-006  0.2000117E+02  0.7818608E-02  0.1745305E+00
          4   -1    0    0  501    0  0.00000000000E+00  0.00000000000E+00  0.26220643229E+01  0.29818821763E+01  0.14200000000E+01 0. -1.
         -4   -1    0    0    0  501 -0.00000000000E+00 -0.00000000000E+00 -0.35318307502E+02  0.35346842077E+02  0.14200000000E+01 0.  1.
       1023    2    1    2    0    0  0.00000000000E+00  0.00000000000E+00 -0.32696243180E+02  0.38328724254E+02  0.20001169587E+02 0.  0.
        -11    1    3    3    0    0  0.64748179331E+01  0.76215664148E+01 -0.16324335205E+02  0.19144071198E+02  0.51100000000E-03 0. -1.
         11    1    3    3    0    0 -0.64748179331E+01 -0.76215664148E+01 -0.16371907974E+02  0.19184653056E+02  0.51100000000E-03 0.  1.
<mgrwt>
<rscale>  0 0.20001170E+02</rscale>
<asrwt>0</asrwt>
<pdfrwt beam="1">  1        4 0.43326780E-03 0.20001170E+02</pdfrwt>
<pdfrwt beam="2">  1       -4 0.54634587E-02 0.20001170E+02</pdfrwt>
<totfact> 0.12039694E+06</totfact>
</mgrwt>
</event>
<event>
 5    1  0.1189396E-006  0.2000069E+02  0.7818608E-02  0.1745314E+00
          4   -1    0    0  501    0  0.00000000000E+00  0.00000000000E+00  0.59249254370E+01  0.60927121575E+01  0.14200000000E+01 0.  1.
         -4   -1    0    0    0  501 -0.00000000000E+00 -0.00000000000E+00 -0.16444537843E+02  0.16505733091E+02  0.14200000000E+01 0. -1.
       1023    2    1    2    0    0  0.00000000000E+00  0.00000000000E+00 -0.10519612406E+02  0.22598445249E+02  0.20000687050E+02 0.  0.
        -11    1    3    3    0    0  0.99364054320E+01  0.11271463442E+01 -0.51860726027E+01  0.11264899515E+02  0.51100000000E-03 0.  1.
         11    1    3    3    0    0 -0.99364054320E+01 -0.11271463442E+01 -0.53335398034E+01  0.11333545733E+02  0.51100000000E-03 0. -1.
<mgrwt>
<rscale>  0 0.20000687E+02</rscale>
<asrwt>0</asrwt>
<pdfrwt beam="1">  1        4 0.92914099E-03 0.20000687E+02</pdfrwt>
<pdfrwt beam="2">  1       -4 0.25475429E-02 0.20000687E+02</pdfrwt>
<totfact> 0.12860726E+06</totfact>
</mgrwt>
</event>
<event>
 5    1  0.1167692E-006  0.2000225E+02  0.7818608E-02  0.1745283E+00
         -4   -1    0    0    0  501 -0.00000000000E+00  0.00000000000E+00  0.64142955236E+01  0.65695956546E+01  0.14200000000E+01 0. -1.
          4   -1    0    0  501    0  0.00000000000E+00 -0.00000000000E+00 -0.15218427012E+02  0.15284532074E+02  0.14200000000E+01 0.  1.
       1023    2    1    2    0    0  0.00000000000E+00  0.00000000000E+00 -0.88041314881E+01  0.21854127728E+02  0.20002254061E+02 0.  0.
        -11    1    3    3    0    0  0.86169209452E+01 -0.50765241169E+01 -0.43902007978E+01  0.10922283964E+02  0.51100000000E-03 0. -1.
         11    1    3    3    0    0 -0.86169209452E+01  0.50765241169E+01 -0.44139306903E+01  0.10931843764E+02  0.51100000000E-03 0.  1.
<mgrwt>
<rscale>  0 0.20002254E+02</rscale>
<asrwt>0</asrwt>
<pdfrwt beam="2">  1        4 0.23583276E-02 0.20002254E+02</pdfrwt>
<pdfrwt beam="1">  1       -4 0.10038459E-02 0.20002254E+02</pdfrwt>
<totfact> 0.12901736E+06</totfact>
</mgrwt>
</event>
<event>
 5    1  0.1154861E-006  0.2001071E+02  0.7818608E-02  0.1745115E+00
         -4   -1    0    0    0  501 -0.00000000000E+00  0.00000000000E+00  0.20836420142E+01  0.25215003556E+01  0.14200000000E+01 0. -1.
          4   -1    0    0  501    0  0.00000000000E+00 -0.00000000000E+00 -0.43025548624E+02  0.43048974835E+02  0.14200000000E+01 0.  1.
       1023    2    1    2    0    0  0.00000000000E+00  0.00000000000E+00 -0.40941906610E+02  0.45570475191E+02  0.20010709440E+02 0.  0.
        -11    1    3    3    0    0  0.56089275335E+01  0.82818484302E+01 -0.21019596126E+02  0.23278155061E+02  0.51100000000E-03 0. -1.
         11    1    3    3    0    0 -0.56089275335E+01 -0.82818484302E+01 -0.19922310483E+02  0.22292320130E+02  0.51100000000E-03 0.  1.
<mgrwt>
<rscale>  0 0.20010709E+02</rscale>
<asrwt>0</asrwt>
<pdfrwt beam="2">  1        4 0.66547980E-02 0.20010709E+02</pdfrwt>
<pdfrwt beam="1">  1       -4 0.35604377E-03 0.20010709E+02</pdfrwt>
<totfact> 0.11697997E+06</totfact>
</mgrwt>
</event>
<event>
 4    1  0.1154861E-006  0.2006272E+02  0.7818608E-02  0.1744084E+00
          4   -1    0    0  501    0  0.00000000000E+00  0.00000000000E+00  0.66723967034E+01  0.68218236394E+01  0.14200000000E+01 0. -1.
         -4   -1    0    0    0  501 -0.00000000000E+00 -0.00000000000E+00 -0.14730313423E+02  0.14798599040E+02  0.14200000000E+01 0.  1.
        -11    1    1    2    0    0 -0.59974920697E+01  0.80405230559E+01 -0.39311280492E+01  0.10773750050E+02  0.51100000000E-03 0. -1.
         11    1    1    2    0    0  0.59974920697E+01 -0.80405230559E+01 -0.41267886708E+01  0.10846672630E+02  0.51100000000E-03 0.  1.
<mgrwt>
<rscale>  0 0.20062718E+02</rscale>
<asrwt>0</asrwt>
<pdfrwt beam="1">  1        4 0.10432697E-02 0.20062718E+02</pdfrwt>
<pdfrwt beam="2">  1       -4 0.22829492E-02 0.20062718E+02</pdfrwt>
<totfact> 0.12836052E+06</totfact>
</mgrwt>
</event>
<event>
 5    1  0.1154861E-006  0.2000496E+02  0.7818608E-02  0.1745230E+00
          4   -1    0    0  501    0  0.00000000000E+00  0.00000000000E+00  0.74718206552E+01  0.76055574354E+01  0.14200000000E+01 0. -1.
         -4   -1    0    0    0  501 -0.00000000000E+00 -0.00000000000E+00 -0.13099032909E+02  0.13175775618E+02  0.14200000000E+01 0.  1.
       1023    2    1    2    0    0  0.00000000000E+00  0.00000000000E+00 -0.56272122537E+01  0.20781333054E+02  0.20004956530E+02 0.  0.
        -11    1    3    3    0    0  0.80134723671E+01 -0.59861141589E+01 -0.28306461992E+01  0.10395280673E+02  0.51100000000E-03 0. -1.
         11    1    3    3    0    0 -0.80134723671E+01  0.59861141589E+01 -0.27965660545E+01  0.10386052381E+02  0.51100000000E-03 0.  1.
<mgrwt>
<rscale>  0 0.20004957E+02</rscale>
<asrwt>0</asrwt>
<pdfrwt beam="1">  1        4 0.11657016E-02 0.20004957E+02</pdfrwt>
<pdfrwt beam="2">  1       -4 0.20314266E-02 0.20004957E+02</pdfrwt>
<totfact> 0.12961128E+06</totfact>
</mgrwt>
</event>
<event>
 5    1  0.1154861E-006  0.2000170E+02  0.7818608E-02  0.1745294E+00
          4   -1    0    0  501    0  0.00000000000E+00  0.00000000000E+00  0.63596134626E+02  0.63611985816E+02  0.14200000000E+01 0.  1.
         -4   -1    0    0    0  501 -0.00000000000E+00 -0.00000000000E+00 -0.12327565758E+01  0.18804490887E+01  0.14200000000E+01 0. -1.
       1023    2    1    2    0    0  0.00000000000E+00  0.00000000000E+00  0.62363378050E+02  0.65492434904E+02  0.20001702623E+02 0.  0.
        -11    1    3    3    0    0  0.71899329769E+01 -0.69510660593E+01  0.31403067656E+02  0.32957019192E+02  0.51100000000E-03 0. -1.
         11    1    3    3    0    0 -0.71899329769E+01  0.69510660593E+01  0.30960310395E+02  0.32535415712E+02  0.51100000000E-03 0.  1.
<mgrwt>
<rscale>  0 0.20001703E+02</rscale>
<asrwt>0</asrwt>
<pdfrwt beam="1">  1        4 0.98350628E-02 0.20001703E+02</pdfrwt>
<pdfrwt beam="2">  1       -4 0.24069668E-03 0.20001703E+02</pdfrwt>
<totfact> 0.10911024E+06</totfact>
</mgrwt>
</event>
<event>
 5    1  0.1154861E-006  0.2000723E+02  0.7818608E-02  0.1745184E+00
         -4   -1    0    0    0  501 -0.00000000000E+00  0.00000000000E+00  0.17836266436E+01  0.22798517504E+01  0.14200000000E+01 0.  1.
          4   -1    0    0  501    0  0.00000000000E+00 -0.00000000000E+00 -0.48746698094E+02  0.48767376135E+02  0.14200000000E+01 0. -1.
       1023    2    1    2    0    0  0.00000000000E+00  0.00000000000E+00 -0.46963071451E+02  0.51047227885E+02  0.20007233559E+02 0.  0.
        -11    1    3    3    0    0  0.53886203786E+01 -0.84280859131E+01 -0.23608767119E+02  0.25640665882E+02  0.51100000000E-03 0. -1.
         11    1    3    3    0    0 -0.53886203786E+01  0.84280859131E+01 -0.23354304331E+02  0.25406562003E+02  0.51100000000E-03 0.  1.
<mgrwt>
<rscale>  0 0.20007234E+02</rscale>
<asrwt>0</asrwt>
<pdfrwt beam="2">  1        4 0.75392529E-02 0.20007234E+02</pdfrwt>
<pdfrwt beam="1">  1       -4 0.31416592E-03 0.20007234E+02</pdfrwt>
<totfact> 0.11468031E+06</totfact>
</mgrwt>
</event>
<event>
 5    1  0.1164387E-006  0.2000087E+02  0.7818608E-02  0.1745311E+00
          4   -1    0    0  501    0  0.00000000000E+00  0.00000000000E+00  0.33248240021E+01  0.36153636947E+01  0.14200000000E+01 0. -1.
         -4   -1    0    0    0  501 -0.00000000000E+00 -0.00000000000E+00 -0.28511222353E+02  0.28546561965E+02  0.14200000000E+01 0.  1.
       1023    2    1    2    0    0  0.00000000000E+00  0.00000000000E+00 -0.25186398351E+02  0.32161925660E+02  0.20000869988E+02 0.  0.
        -11    1    3    3    0    0  0.54040868217E+00 -0.99855242992E+01 -0.12469029347E+02  0.15983723915E+02  0.51100000000E-03 0. -1.
         11    1    3    3    0    0 -0.54040868217E+00  0.99855242992E+01 -0.12717369004E+02  0.16178201746E+02  0.51100000000E-03 0.  1.
<mgrwt>
<rscale>  0 0.20000870E+02</rscale>
<asrwt>0</asrwt>
<pdfrwt beam="1">  1        4 0.53657904E-03 0.20000870E+02</pdfrwt>
<pdfrwt beam="2">  1       -4 0.44114094E-02 0.20000870E+02</pdfrwt>
<totfact> 0.12343112E+06</totfact>
</mgrwt>
</event>
<event>
 5    1  0.1154861E-006  0.2000101E+02  0.7818608E-02  0.1745308E+00
         -4   -1    0    0    0  501 -0.00000000000E+00  0.00000000000E+00  0.26525919846E+00  0.14445630628E+01  0.14200000000E+01 0. -1.
          4   -1    0    0  501    0  0.00000000000E+00 -0.00000000000E+00 -0.11579643205E+03  0.11580513838E+03  0.14200000000E+01 0.  1.
       1023    2    1    2    0    0  0.00000000000E+00  0.00000000000E+00 -0.11553117285E+03  0.11724970144E+03  0.20001014681E+02 0.  0.
        -11    1    3    3    0    0  0.21193779118E+01 -0.97733492288E+01 -0.57734059509E+02  0.58593785895E+02  0.51100000000E-03 0.  1.
         11    1    3    3    0    0 -0.21193779118E+01  0.97733492288E+01 -0.57797113339E+02  0.58655915546E+02  0.51100000000E-03 0. -1.
<mgrwt>
<rscale>  0 0.20001015E+02</rscale>
<asrwt>0</asrwt>
<pdfrwt beam="2">  1        4 0.17906209E-01 0.20001015E+02</pdfrwt>
<pdfrwt beam="1">  1       -4 0.13219460E-03 0.20001015E+02</pdfrwt>
<totfact> 0.93346910E+05</totfact>
</mgrwt>
</event>
<event>
 5    1  0.1154861E-006  0.2000164E+02  0.7818608E-02  0.1745296E+00
         -4   -1    0    0    0  501 -0.00000000000E+00  0.00000000000E+00  0.57945473258E+02  0.57962869762E+02  0.14200000000E+01 0. -1.
          4   -1    0    0  501    0  0.00000000000E+00 -0.00000000000E+00 -0.14132619700E+01  0.20034244173E+01  0.14200000000E+01 0.  1.
       1023    2    1    2    0    0  0.00000000000E+00  0.00000000000E+00  0.56532211288E+02  0.59966294179E+02  0.20001638046E+02 0.  0.
        -11    1    3    3    0    0 -0.73719864007E+01 -0.67573744574E+01  0.28535728951E+02  0.30237329910E+02  0.51100000000E-03 0.  1.
         11    1    3    3    0    0  0.73719864007E+01  0.67573744574E+01  0.27996482336E+02  0.29728964269E+02  0.51100000000E-03 0. -1.
<mgrwt>
<rscale>  0 0.20001638E+02</rscale>
<asrwt>0</asrwt>
<pdfrwt beam="2">  1        4 0.26416022E-03 0.20001638E+02</pdfrwt>
<pdfrwt beam="1">  1       -4 0.89614235E-02 0.20001638E+02</pdfrwt>
<totfact> 0.11118317E+06</totfact>
</mgrwt>
</event>
<event>
 5    1  0.1154861E-006  0.2000098E+02  0.7818608E-02  0.1745309E+00
         -4   -1    0    0    0  501 -0.00000000000E+00  0.00000000000E+00  0.10527890108E+03  0.10528847711E+03  0.14200000000E+01 0. -1.
          4   -1    0    0  501    0  0.00000000000E+00 -0.00000000000E+00 -0.40420600065E+00  0.14764086463E+01  0.14200000000E+01 0.  1.
       1023    2    1    2    0    0  0.00000000000E+00  0.00000000000E+00  0.10487469508E+03  0.10676488575E+03  0.20000979052E+02 0.  0.
        -11    1    3    3    0    0  0.17549056053E+01 -0.98449434152E+01  0.51984846297E+02  0.52937952826E+02  0.51100000000E-03 0.  1.
         11    1    3    3    0    0 -0.17549056053E+01  0.98449434152E+01  0.52889848778E+02  0.53826932929E+02  0.51100000000E-03 0. -1.
<mgrwt>
<rscale>  0 0.20000979E+02</rscale>
<asrwt>0</asrwt>
<pdfrwt beam="2">  1        4 0.14539933E-03 0.20000979E+02</pdfrwt>
<pdfrwt beam="1">  1       -4 0.16279963E-01 0.20000979E+02</pdfrwt>
<totfact> 0.96117668E+05</totfact>
</mgrwt>
</event>
<event>
 5    1  0.1169841E-006  0.2000061E+02  0.7818608E-02  0.1745316E+00
          4   -1    0    0  501    0  0.00000000000E+00  0.00000000000E+00  0.21903551684E+02  0.21949532487E+02  0.14200000000E+01 0.  1.
         -4   -1    0    0    0  501 -0.00000000000E+00 -0.00000000000E+00 -0.44032099810E+01  0.46265168471E+01  0.14200000000E+01 0. -1.
       1023    2    1    2    0    0  0.00000000000E+00  0.00000000000E+00  0.17500341703E+02  0.26576049334E+02  0.20000610952E+02 0.  0.
        -11    1    3    3    0    0  0.20587814677E+01  0.97860631309E+01  0.87797822968E+01  0.13307523818E+02  0.51100000000E-03 0.  1.
         11    1    3    3    0    0 -0.20587814677E+01 -0.97860631309E+01  0.87205594067E+01  0.13268525516E+02  0.51100000000E-03 0. -1.
<mgrwt>
<rscale>  0 0.20000611E+02</rscale>
<asrwt>0</asrwt>
<pdfrwt beam="1">  1        4 0.33904916E-02 0.20000611E+02</pdfrwt>
<pdfrwt beam="2">  1       -4 0.69813136E-03 0.20000611E+02</pdfrwt>
<totfact> 0.12637798E+06</totfact>
</mgrwt>
</event>
<event>
 5    1  0.1172359E-006  0.2000103E+02  0.7818608E-02  0.1745308E+00
          4   -1    0    0  501    0  0.00000000000E+00  0.00000000000E+00  0.28853444043E+02  0.28888365013E+02  0.14200000000E+01 0. -1.
         -4   -1    0    0    0  501 -0.00000000000E+00 -0.00000000000E+00 -0.32820337324E+01  0.35760516524E+01  0.14200000000E+01 0.  1.
       1023    2    1    2    0    0  0.00000000000E+00  0.00000000000E+00  0.25571410311E+02  0.32464416666E+02  0.20001033078E+02 0.  0.
        -11    1    3    3    0    0  0.79050658303E+01 -0.61252462802E+01  0.12851095735E+02  0.16283714860E+02  0.51100000000E-03 0. -1.
         11    1    3    3    0    0 -0.79050658303E+01  0.61252462802E+01  0.12720314575E+02  0.16180701806E+02  0.51100000000E-03 0.  1.
<mgrwt>
<rscale>  0 0.20001033E+02</rscale>
<asrwt>0</asrwt>
<pdfrwt beam="1">  1        4 0.44642943E-02 0.20001033E+02</pdfrwt>
<pdfrwt beam="2">  1       -4 0.53023126E-03 0.20001033E+02</pdfrwt>
<totfact> 0.12327519E+06</totfact>
</mgrwt>
</event>
<event>
 5    1  0.1154861E-006  0.2000030E+02  0.7818608E-02  0.1745322E+00
         -4   -1    0    0    0  501 -0.00000000000E+00  0.00000000000E+00  0.29107753729E+01  0.32386746165E+01  0.14200000000E+01 0. -1.
          4   -1    0    0  501    0  0.00000000000E+00 -0.00000000000E+00 -0.32179806720E+02  0.32211121691E+02  0.14200000000E+01 0.  1.
       1023    2    1    2    0    0  0.00000000000E+00  0.00000000000E+00 -0.29269031348E+02  0.35449796307E+02  0.20000296552E+02 0.  0.
        -11    1    3    3    0    0  0.86336955869E+01 -0.50458703702E+01 -0.14566836206E+02  0.17669018778E+02  0.51100000000E-03 0. -1.
         11    1    3    3    0    0 -0.86336955869E+01  0.50458703702E+01 -0.14702195142E+02  0.17780777529E+02  0.51100000000E-03 0.  1.
<mgrwt>
<rscale>  0 0.20000297E+02</rscale>
<asrwt>0</asrwt>
<pdfrwt beam="2">  1        4 0.49783711E-02 0.20000297E+02</pdfrwt>
<pdfrwt beam="1">  1       -4 0.47544348E-03 0.20000297E+02</pdfrwt>
<totfact> 0.12179521E+06</totfact>
</mgrwt>
</event>
<event>
 5    1  0.1154861E-006  0.2000027E+02  0.7818608E-02  0.1745323E+00
         -4   -1    0    0    0  501 -0.00000000000E+00  0.00000000000E+00  0.41831855700E+01  0.44176284942E+01  0.14200000000E+01 0.  1.
          4   -1    0    0  501    0  0.00000000000E+00 -0.00000000000E+00 -0.22997291626E+02  0.23041089865E+02  0.14200000000E+01 0. -1.
       1023    2    1    2    0    0  0.00000000000E+00  0.00000000000E+00 -0.18814106056E+02  0.27458718359E+02  0.20000265678E+02 0.  0.
        -11    1    3    3    0    0 -0.67638404457E+01  0.73656183915E+01 -0.94455112902E+01  0.13755709929E+02  0.51100000000E-03 0. -1.
         11    1    3    3    0    0  0.67638404457E+01 -0.73656183915E+01 -0.93685947662E+01  0.13703008429E+02  0.51100000000E-03 0.  1.
<mgrwt>
<rscale>  0 0.20000266E+02</rscale>
<asrwt>0</asrwt>
<pdfrwt beam="2">  1        4 0.35594480E-02 0.20000266E+02</pdfrwt>
<pdfrwt beam="1">  1       -4 0.66497019E-03 0.20000266E+02</pdfrwt>
<totfact> 0.12590322E+06</totfact>
</mgrwt>
</event>
<event>
 5    1  0.1154861E-006  0.2000058E+02  0.7818608E-02  0.1745317E+00
         -4   -1    0    0    0  501 -0.00000000000E+00  0.00000000000E+00  0.22022431267E+01  0.26203577597E+01  0.14200000000E+01 0. -1.
          4   -1    0    0  501    0  0.00000000000E+00 -0.00000000000E+00 -0.41042351190E+02  0.41066908712E+02  0.14200000000E+01 0.  1.
       1023    2    1    2    0    0  0.00000000000E+00  0.00000000000E+00 -0.38840108063E+02  0.43687266472E+02  0.20000581428E+02 0.  0.
        -11    1    3    3    0    0 -0.92482056704E+01 -0.38041939923E+01 -0.19568426460E+02  0.21975543553E+02  0.51100000000E-03 0. -1.
         11    1    3    3    0    0  0.92482056704E+01  0.38041939923E+01 -0.19271681603E+02  0.21711722919E+02  0.51100000000E-03 0.  1.
<mgrwt>
<rscale>  0 0.20000581E+02</rscale>
<asrwt>0</asrwt>
<pdfrwt beam="2">  1        4 0.63482591E-02 0.20000581E+02</pdfrwt>
<pdfrwt beam="1">  1       -4 0.37285837E-03 0.20000581E+02</pdfrwt>
<totfact> 0.11793557E+06</totfact>
</mgrwt>
</event>
<event>
 5    1  0.1181745E-006  0.2000140E+02  0.7818608E-02  0.1745300E+00
         -4   -1    0    0    0  501 -0.00000000000E+00  0.00000000000E+00  0.18351830876E+02  0.18406686190E+02  0.14200000000E+01 0.  1.
          4   -1    0    0  501    0  0.00000000000E+00 -0.00000000000E+00 -0.52931014075E+01  0.54802666459E+01  0.14200000000E+01 0. -1.
       1023    2    1    2    0    0  0.00000000000E+00  0.00000000000E+00  0.13058729468E+02  0.23886952836E+02  0.20001402462E+02 0.  0.
        -11    1    3    3    0    0 -0.71015322370E+01  0.70407406901E+01  0.66501878483E+01  0.12009529061E+02  0.51100000000E-03 0.  1.
         11    1    3    3    0    0  0.71015322370E+01 -0.70407406901E+01  0.64085416198E+01  0.11877423775E+02  0.51100000000E-03 0. -1.
<mgrwt>
<rscale>  0 0.20001402E+02</rscale>
<asrwt>0</asrwt>
<pdfrwt beam="2">  1        4 0.83294025E-03 0.20001402E+02</pdfrwt>
<pdfrwt beam="1">  1       -4 0.28419756E-02 0.20001402E+02</pdfrwt>
<totfact> 0.12786315E+06</totfact>
</mgrwt>
</event>
<event>
 5    1  0.1154861E-006  0.2001084E+02  0.7818608E-02  0.1745113E+00
          4   -1    0    0  501    0  0.00000000000E+00  0.00000000000E+00  0.44360975320E+02  0.44383696684E+02  0.14200000000E+01 0.  1.
         -4   -1    0    0    0  501 -0.00000000000E+00 -0.00000000000E+00 -0.20076039861E+01  0.24590391955E+01  0.14200000000E+01 0. -1.
       1023    2    1    2    0    0  0.00000000000E+00  0.00000000000E+00  0.42353371334E+02  0.46842735879E+02  0.20010843094E+02 0.  0.
        -11    1    3    3    0    0  0.75057228745E+01 -0.66145272077E+01  0.21512777719E+02  0.23725249240E+02  0.51100000000E-03 0.  1.
         11    1    3    3    0    0 -0.75057228745E+01  0.66145272077E+01  0.20840593615E+02  0.23117486640E+02  0.51100000000E-03 0. -1.
<mgrwt>
<rscale>  0 0.20010843E+02</rscale>
<asrwt>0</asrwt>
<pdfrwt beam="1">  1        4 0.68612383E-02 0.20010843E+02</pdfrwt>
<pdfrwt beam="2">  1       -4 0.34533577E-03 0.20010843E+02</pdfrwt>
<totfact> 0.11642338E+06</totfact>
</mgrwt>
</event>
<event>
 5    1  0.1163645E-006  0.2000098E+02  0.7818608E-02  0.1745309E+00
          4   -1    0    0  501    0  0.00000000000E+00  0.00000000000E+00  0.29022398878E+02  0.29057116799E+02  0.14200000000E+01 0.  1.
         -4   -1    0    0    0  501 -0.00000000000E+00 -0.00000000000E+00 -0.32612158550E+01  0.35569549973E+01  0.14200000000E+01 0. -1.
       1023    2    1    2    0    0  0.00000000000E+00  0.00000000000E+00  0.25761183023E+02  0.32614071796E+02  0.20000978185E+02 0.  0.
        -11    1    3    3    0    0 -0.85328526811E+01  0.52153216622E+01  0.12921419374E+02  0.16339284985E+02  0.51100000000E-03 0.  1.
         11    1    3    3    0    0  0.85328526811E+01 -0.52153216622E+01  0.12839763649E+02  0.16274786811E+02  0.51100000000E-03 0. -1.
<mgrwt>
<rscale>  0 0.20000978E+02</rscale>
<asrwt>0</asrwt>
<pdfrwt beam="1">  1        4 0.44904042E-02 0.20000978E+02</pdfrwt>
<pdfrwt beam="2">  1       -4 0.52714529E-03 0.20000978E+02</pdfrwt>
<totfact> 0.12319996E+06</totfact>
</mgrwt>
</event>
<event>
 5    1  0.1154861E-006  0.2000028E+02  0.7818608E-02  0.1745322E+00
         -4   -1    0    0    0  501 -0.00000000000E+00  0.00000000000E+00  0.20021136376E+02  0.20071429989E+02  0.14200000000E+01 0.  1.
          4   -1    0    0  501    0  0.00000000000E+00 -0.00000000000E+00 -0.48360937977E+01  0.50402582493E+01  0.14200000000E+01 0. -1.
       1023    2    1    2    0    0  0.00000000000E+00  0.00000000000E+00  0.15185042579E+02  0.25111688238E+02  0.20000284199E+02 0.  0.
        -11    1    3    3    0    0 -0.80498363439E+01  0.59331860732E+01  0.76135163474E+01  0.12568539835E+02  0.51100000000E-03 0. -1.
         11    1    3    3    0    0  0.80498363439E+01 -0.59331860732E+01  0.75715262314E+01  0.12543148404E+02  0.51100000000E-03 0.  1.
<mgrwt>
<rscale>  0 0.20000284E+02</rscale>
<asrwt>0</asrwt>
<pdfrwt beam="2">  1        4 0.76358813E-03 0.20000284E+02</pdfrwt>
<pdfrwt beam="1">  1       -4 0.30997485E-02 0.20000284E+02</pdfrwt>
<totfact> 0.12718999E+06</totfact>
</mgrwt>
</event>
<event>
 5    1  0.1178080E-006  0.2000120E+02  0.7818608E-02  0.1745304E+00
         -4   -1    0    0    0  501 -0.00000000000E+00  0.00000000000E+00  0.30218029024E+01  0.33388160747E+01  0.14200000000E+01 0.  1.
          4   -1    0    0  501    0  0.00000000000E+00 -0.00000000000E+00 -0.31113230322E+02  0.31145617686E+02  0.14200000000E+01 0. -1.
       1023    2    1    2    0    0  0.00000000000E+00  0.00000000000E+00 -0.28091427419E+02  0.34484433761E+02  0.20001196898E+02 0.  0.
        -11    1    3    3    0    0 -0.72346893612E+01 -0.69042776289E+01 -0.13965041423E+02  0.17176500282E+02  0.51100000000E-03 0.  1.
         11    1    3    3    0    0  0.72346893612E+01  0.69042776289E+01 -0.14126385996E+02  0.17307933479E+02  0.51100000000E-03 0. -1.
<mgrwt>
<rscale>  0 0.20001197E+02</rscale>
<asrwt>0</asrwt>
<pdfrwt beam="2">  1        4 0.48135276E-02 0.20001197E+02</pdfrwt>
<pdfrwt beam="1">  1       -4 0.49176974E-03 0.20001197E+02</pdfrwt>
<totfact> 0.12225982E+06</totfact>
</mgrwt>
</event>
<event>
 4    1  0.1154861E-006  0.2002159E+02  0.7818608E-02  0.1744899E+00
          4   -1    0    0  501    0  0.00000000000E+00  0.00000000000E+00  0.44076738274E+01  0.46307654409E+01  0.14200000000E+01 0. -1.
         -4   -1    0    0    0  501 -0.00000000000E+00 -0.00000000000E+00 -0.21928888240E+02  0.21974816028E+02  0.14200000000E+01 0.  1.
        -11    1    1    2    0    0 -0.61670286050E+01  0.78744088422E+01 -0.93203742595E+01  0.13671427615E+02  0.51100000000E-03 0.  1.
         11    1    1    2    0    0  0.61670286050E+01 -0.78744088422E+01 -0.82008401532E+01  0.12934153854E+02  0.51100000000E-03 0. -1.
<mgrwt>
<rscale>  0 0.20021589E+02</rscale>
<asrwt>0</asrwt>
<pdfrwt beam="1">  1        4 0.69879748E-03 0.20021589E+02</pdfrwt>
<pdfrwt beam="2">  1       -4 0.33943689E-02 0.20021589E+02</pdfrwt>
<totfact> 0.12609254E+06</totfact>
</mgrwt>
</event>
<event>
 5    1  0.1154861E-006  0.2000208E+02  0.7818608E-02  0.1745287E+00
          4   -1    0    0  501    0  0.00000000000E+00  0.00000000000E+00  0.65567452117E+02  0.65582826846E+02  0.14200000000E+01 0.  1.
         -4   -1    0    0    0  501 -0.00000000000E+00 -0.00000000000E+00 -0.11760024433E+01  0.18437412363E+01  0.14200000000E+01 0. -1.
       1023    2    1    2    0    0  0.00000000000E+00  0.00000000000E+00  0.64391449674E+02  0.67426568082E+02  0.20002082199E+02 0.  0.
        -11    1    3    3    0    0 -0.85887397519E+01 -0.51236918907E+01  0.32352164723E+02  0.33862681992E+02  0.51100000000E-03 0.  1.
         11    1    3    3    0    0  0.85887397519E+01  0.51236918907E+01  0.32039284950E+02  0.33563886091E+02  0.51100000000E-03 0. -1.
<mgrwt>
<rscale>  0 0.20002082E+02</rscale>
<asrwt>0</asrwt>
<pdfrwt beam="1">  1        4 0.10139845E-01 0.20002082E+02</pdfrwt>
<pdfrwt beam="2">  1       -4 0.23347070E-03 0.20002082E+02</pdfrwt>
<totfact> 0.10840338E+06</totfact>
</mgrwt>
</event>
<event>
 5    1  0.1154861E-006  0.2000192E+02  0.7818608E-02  0.1745290E+00
         -4   -1    0    0    0  501 -0.00000000000E+00  0.00000000000E+00  0.52033278410E+00  0.15123313811E+01  0.14200000000E+01 0. -1.
          4   -1    0    0  501    0  0.00000000000E+00 -0.00000000000E+00 -0.97412199827E+02  0.97422549110E+02  0.14200000000E+01 0.  1.
       1023    2    1    2    0    0  0.00000000000E+00  0.00000000000E+00 -0.96891867043E+02  0.98934880491E+02  0.20001916877E+02 0.  0.
        -11    1    3    3    0    0  0.74473259895E+01 -0.66746712433E+01 -0.48804967048E+02  0.49819059700E+02  0.51100000000E-03 0.  1.
         11    1    3    3    0    0 -0.74473259895E+01  0.66746712433E+01 -0.48086899995E+02  0.49115820791E+02  0.51100000000E-03 0. -1.
<mgrwt>
<rscale>  0 0.20001917E+02</rscale>
<asrwt>0</asrwt>
<pdfrwt beam="2">  1        4 0.15063588E-01 0.20001917E+02</pdfrwt>
<pdfrwt beam="1">  1       -4 0.15715496E-03 0.20001917E+02</pdfrwt>
<totfact> 0.98298053E+05</totfact>
</mgrwt>
</event>
<event>
 5    1  0.1154861E-006  0.2000286E+02  0.7818608E-02  0.1745271E+00
          4   -1    0    0  501    0  0.00000000000E+00  0.00000000000E+00  0.42816694629E+02  0.42840235048E+02  0.14200000000E+01 0. -1.
         -4   -1    0    0    0  501 -0.00000000000E+00 -0.00000000000E+00 -0.20939245884E+01  0.25300039885E+01  0.14200000000E+01 0.  1.
       1023    2    1    2    0    0  0.00000000000E+00  0.00000000000E+00  0.40722770041E+02  0.45370239036E+02  0.20002864556E+02 0.  0.
        -11    1    3    3    0    0 -0.48517101793E+01  0.87457298320E+01  0.20266083653E+02  0.22599580280E+02  0.51100000000E-03 0.  1.
         11    1    3    3    0    0  0.48517101793E+01 -0.87457298320E+01  0.20456686388E+02  0.22770658756E+02  0.51100000000E-03 0. -1.
<mgrwt>
<rscale>  0 0.20002865E+02</rscale>
<asrwt>0</asrwt>
<pdfrwt beam="1">  1        4 0.66225379E-02 0.20002865E+02</pdfrwt>
<pdfrwt beam="2">  1       -4 0.35749768E-03 0.20002865E+02</pdfrwt>
<totfact> 0.11716077E+06</totfact>
</mgrwt>
</event>
<event>
 5    1  0.1154861E-006  0.2000040E+02  0.7818608E-02  0.1745320E+00
         -4   -1    0    0    0  501 -0.00000000000E+00  0.00000000000E+00  0.46047549925E+00  0.14927952590E+01  0.14200000000E+01 0. -1.
          4   -1    0    0  501    0  0.00000000000E+00 -0.00000000000E+00 -0.10135649910E+03  0.10136644568E+03  0.14200000000E+01 0.  1.
       1023    2    1    2    0    0  0.00000000000E+00  0.00000000000E+00 -0.10089602360E+03  0.10285924094E+03  0.20000396699E+02 0.  0.
        -11    1    3    3    0    0 -0.64112261286E+01 -0.76745800875E+01 -0.50288104408E+02  0.51272765141E+02  0.51100000000E-03 0. -1.
         11    1    3    3    0    0  0.64112261286E+01  0.76745800875E+01 -0.50607919195E+02  0.51586475800E+02  0.51100000000E-03 0.  1.
<mgrwt>
<rscale>  0 0.20000397E+02</rscale>
<asrwt>0</asrwt>
<pdfrwt beam="2">  1        4 0.15673474E-01 0.20000397E+02</pdfrwt>
<pdfrwt beam="1">  1       -4 0.15101680E-03 0.20000397E+02</pdfrwt>
<totfact> 0.97201999E+05</totfact>
</mgrwt>
</event>
<event>
 5    1  0.1154861E-006  0.2000476E+02  0.7818608E-02  0.1745233E+00
         -4   -1    0    0    0  501 -0.00000000000E+00  0.00000000000E+00  0.69093783720E+01  0.70537868898E+01  0.14200000000E+01 0. -1.
          4   -1    0    0  501    0  0.00000000000E+00 -0.00000000000E+00 -0.14149901969E+02  0.14220974852E+02  0.14200000000E+01 0.  1.
       1023    2    1    2    0    0  0.00000000000E+00  0.00000000000E+00 -0.72405235971E+01  0.21274761742E+02  0.20004757064E+02 0.  0.
        -11    1    3    3    0    0 -0.98167700746E+01  0.19179382820E+01 -0.36089025159E+01  0.10633514921E+02  0.51100000000E-03 0. -1.
         11    1    3    3    0    0  0.98167700746E+01 -0.19179382820E+01 -0.36316210811E+01  0.10641246820E+02  0.51100000000E-03 0.  1.
<mgrwt>
<rscale>  0 0.20004757E+02</rscale>
<asrwt>0</asrwt>
<pdfrwt beam="2">  1        4 0.21934835E-02 0.20004757E+02</pdfrwt>
<pdfrwt beam="1">  1       -4 0.10795568E-02 0.20004757E+02</pdfrwt>
<totfact> 0.12932295E+06</totfact>
</mgrwt>
</event>
<event>
 4    1  0.1154861E-006  0.2003870E+02  0.7818608E-02  0.1744560E+00
          4   -1    0    0  501    0  0.00000000000E+00  0.00000000000E+00  0.86575800024E+02  0.86587444527E+02  0.14200000000E+01 0.  1.
         -4   -1    0    0    0  501 -0.00000000000E+00 -0.00000000000E+00 -0.70858365528E+00  0.15869753610E+01  0.14200000000E+01 0. -1.
        -11    1    1    2    0    0 -0.34221791449E+01 -0.94135332047E+01  0.41842825591E+02  0.43024969159E+02  0.51100000000E-03 0.  1.
         11    1    1    2    0    0  0.34221791449E+01  0.94135332047E+01  0.44024390778E+02  0.45149450729E+02  0.51100000000E-03 0. -1.
<mgrwt>
<rscale>  0 0.20038699E+02</rscale>
<asrwt>0</asrwt>
<pdfrwt beam="1">  1        4 0.13387816E-01 0.20038699E+02</pdfrwt>
<pdfrwt beam="2">  1       -4 0.17747723E-03 0.20038699E+02</pdfrwt>
<totfact> 0.10112503E+06</totfact>
</mgrwt>
</event>
<event>
 5    1  0.1154861E-006  0.2000034E+02  0.7818608E-02  0.1745321E+00
         -4   -1    0    0    0  501 -0.00000000000E+00  0.00000000000E+00  0.68284544421E+00  0.15756515797E+01  0.14200000000E+01 0. -1.
          4   -1    0    0  501    0  0.00000000000E+00 -0.00000000000E+00 -0.87656679281E+02  0.87668180217E+02  0.14200000000E+01 0.  1.
       1023    2    1    2    0    0  0.00000000000E+00  0.00000000000E+00 -0.86973833837E+02  0.89243831797E+02  0.20000343535E+02 0.  0.
        -11    1    3    3    0    0  0.37328432779E+01  0.92772456872E+01 -0.43687892294E+02  0.44817779283E+02  0.51100000000E-03 0.  1.
         11    1    3    3    0    0 -0.37328432779E+01 -0.92772456872E+01 -0.43285941543E+02  0.44426052514E+02  0.51100000000E-03 0. -1.
<mgrwt>
<rscale>  0 0.20000344E+02</rscale>
<asrwt>0</asrwt>
<pdfrwt beam="2">  1        4 0.13555200E-01 0.20000344E+02</pdfrwt>
<pdfrwt beam="1">  1       -4 0.17461530E-03 0.20000344E+02</pdfrwt>
<totfact> 0.10118452E+06</totfact>
</mgrwt>
</event>
<event>
 5    1  0.1154861E-006  0.2000161E+02  0.7818608E-02  0.1745296E+00
          4   -1    0    0  501    0  0.00000000000E+00  0.00000000000E+00  0.36271654869E+02  0.36299440036E+02  0.14200000000E+01 0. -1.
         -4   -1    0    0    0  501 -0.00000000000E+00 -0.00000000000E+00 -0.25437538869E+01  0.29132600016E+01  0.14200000000E+01 0.  1.
       1023    2    1    2    0    0  0.00000000000E+00  0.00000000000E+00  0.33727900982E+02  0.39212700038E+02  0.20001613425E+02 0.  0.
        -11    1    3    3    0    0 -0.18874935262E+01 -0.98210695391E+01  0.16883152602E+02  0.19622866272E+02  0.51100000000E-03 0. -1.
         11    1    3    3    0    0  0.18874935262E+01  0.98210695391E+01  0.16844748380E+02  0.19589833765E+02  0.51100000000E-03 0.  1.
<mgrwt>
<rscale>  0 0.20001613E+02</rscale>
<asrwt>0</asrwt>
<pdfrwt beam="1">  1        4 0.56108151E-02 0.20001613E+02</pdfrwt>
<pdfrwt beam="2">  1       -4 0.42190765E-03 0.20001613E+02</pdfrwt>
<totfact> 0.11997453E+06</totfact>
</mgrwt>
</event>
<event>
 5    1  0.1154861E-006  0.2000244E+02  0.7818608E-02  0.1745280E+00
         -4   -1    0    0    0  501 -0.00000000000E+00  0.00000000000E+00  0.92297411215E+02  0.92308333952E+02  0.14200000000E+01 0. -1.
          4   -1    0    0  501    0  0.00000000000E+00 -0.00000000000E+00 -0.60276899215E+00  0.15426375005E+01  0.14200000000E+01 0.  1.
       1023    2    1    2    0    0  0.00000000000E+00  0.00000000000E+00  0.91694642223E+02  0.93850971453E+02  0.20002435607E+02 0.  0.
        -11    1    3    3    0    0  0.99141420277E+01 -0.13118977358E+01  0.45310925842E+02  0.46401414727E+02  0.51100000000E-03 0. -1.
         11    1    3    3    0    0 -0.99141420277E+01  0.13118977358E+01  0.46383716381E+02  0.47449556725E+02  0.51100000000E-03 0.  1.
<mgrwt>
<rscale>  0 0.20002436E+02</rscale>
<asrwt>0</asrwt>
<pdfrwt beam="2">  1        4 0.16587147E-03 0.20002436E+02</pdfrwt>
<pdfrwt beam="1">  1       -4 0.14272740E-01 0.20002436E+02</pdfrwt>
<totfact> 0.99775249E+05</totfact>
</mgrwt>
</event>
<event>
 5    1  0.1154861E-006  0.2000035E+02  0.7818608E-02  0.1745321E+00
         -4   -1    0    0    0  501 -0.00000000000E+00  0.00000000000E+00  0.20296692418E+01  0.24770864400E+01  0.14200000000E+01 0.  1.
          4   -1    0    0  501    0  0.00000000000E+00 -0.00000000000E+00 -0.43919344998E+02  0.43942294718E+02  0.14200000000E+01 0. -1.
       1023    2    1    2    0    0  0.00000000000E+00  0.00000000000E+00 -0.41889675756E+02  0.46419381158E+02  0.20000350300E+02 0.  0.
        -11    1    3    3    0    0 -0.99449099392E+01 -0.10494194531E+01 -0.21017785857E+02  0.23275520133E+02  0.51100000000E-03 0. -1.
         11    1    3    3    0    0  0.99449099392E+01  0.10494194531E+01 -0.20871889900E+02  0.23143861025E+02  0.51100000000E-03 0.  1.
<mgrwt>
<rscale>  0 0.20000350E+02</rscale>
<asrwt>0</asrwt>
<pdfrwt beam="2">  1        4 0.67930037E-02 0.20000350E+02</pdfrwt>
<pdfrwt beam="1">  1       -4 0.34843891E-03 0.20000350E+02</pdfrwt>
<totfact> 0.11673086E+06</totfact>
</mgrwt>
</event>
<event>
 5    1  0.1154861E-006  0.2000099E+02  0.7818608E-02  0.1745308E+00
          4   -1    0    0  501    0  0.00000000000E+00  0.00000000000E+00  0.99556312860E+00  0.17342277656E+01  0.14200000000E+01 0. -1.
         -4   -1    0    0    0  501 -0.00000000000E+00 -0.00000000000E+00 -0.72525444961E+02  0.72539344957E+02  0.14200000000E+01 0.  1.
       1023    2    1    2    0    0  0.00000000000E+00  0.00000000000E+00 -0.71529881832E+02  0.74273572723E+02  0.20000990226E+02 0.  0.
        -11    1    3    3    0    0  0.48604468452E+01  0.87398970780E+01 -0.35811585791E+02  0.37181708159E+02  0.51100000000E-03 0.  1.
         11    1    3    3    0    0 -0.48604468452E+01 -0.87398970780E+01 -0.35718296041E+02  0.37091864564E+02  0.51100000000E-03 0. -1.
<mgrwt>
<rscale>  0 0.20000990E+02</rscale>
<asrwt>0</asrwt>
<pdfrwt beam="1">  1        4 0.21105320E-03 0.20000990E+02</pdfrwt>
<pdfrwt beam="2">  1       -4 0.11215647E-01 0.20000990E+02</pdfrwt>
<totfact> 0.10601394E+06</totfact>
</mgrwt>
</event>
<event>
 5    1  0.1154861E-006  0.2000041E+02  0.7818608E-02  0.1745320E+00
         -4   -1    0    0    0  501 -0.00000000000E+00  0.00000000000E+00  0.53576600682E+00  0.15177105172E+01  0.14200000000E+01 0. -1.
          4   -1    0    0  501    0  0.00000000000E+00 -0.00000000000E+00 -0.96410124029E+02  0.96420580870E+02  0.14200000000E+01 0.  1.
       1023    2    1    2    0    0  0.00000000000E+00  0.00000000000E+00 -0.95874358023E+02  0.97938291387E+02  0.20000409837E+02 0.  0.
        -11    1    3    3    0    0 -0.50507852738E+01  0.86309078974E+01 -0.48099228765E+02  0.49127780441E+02  0.51100000000E-03 0. -1.
         11    1    3    3    0    0  0.50507852738E+01 -0.86309078974E+01 -0.47775129257E+02  0.48810510946E+02  0.51100000000E-03 0.  1.
<mgrwt>
<rscale>  0 0.20000410E+02</rscale>
<asrwt>0</asrwt>
<pdfrwt beam="2">  1        4 0.14908658E-01 0.20000410E+02</pdfrwt>
<pdfrwt beam="1">  1       -4 0.15876418E-03 0.20000410E+02</pdfrwt>
<totfact> 0.98599527E+05</totfact>
</mgrwt>
</event>
<event>
 5    1  0.1154861E-006  0.2000354E+02  0.7818608E-02  0.1745258E+00
          4   -1    0    0  501    0  0.00000000000E+00  0.00000000000E+00  0.53504420737E+01  0.55356689193E+01  0.14200000000E+01 0. -1.
         -4   -1    0    0    0  501 -0.00000000000E+00 -0.00000000000E+00 -0.18165137462E+02  0.18220554849E+02  0.14200000000E+01 0.  1.
       1023    2    1    2    0    0  0.00000000000E+00  0.00000000000E+00 -0.12814695388E+02  0.23756223768E+02  0.20003543432E+02 0.  0.
        -11    1    3    3    0    0  0.88844432484E+01 -0.45916952128E+01 -0.62460767649E+01  0.11791118351E+02  0.51100000000E-03 0.  1.
         11    1    3    3    0    0 -0.88844432484E+01  0.45916952128E+01 -0.65686186233E+01  0.11965105417E+02  0.51100000000E-03 0. -1.
<mgrwt>
<rscale>  0 0.20003543E+02</rscale>
<asrwt>0</asrwt>
<pdfrwt beam="1">  1        4 0.84165604E-03 0.20003543E+02</pdfrwt>
<pdfrwt beam="2">  1       -4 0.28131476E-02 0.20003543E+02</pdfrwt>
<totfact> 0.12790917E+06</totfact>
</mgrwt>
</event>
<event>
 5    1  0.1154861E-006  0.2000407E+02  0.7818608E-02  0.1745247E+00
         -4   -1    0    0    0  501 -0.00000000000E+00  0.00000000000E+00  0.39741085605E+01  0.42201823244E+01  0.14200000000E+01 0.  1.
          4   -1    0    0  501    0  0.00000000000E+00 -0.00000000000E+00 -0.24149611351E+02  0.24191323412E+02  0.14200000000E+01 0. -1.
       1023    2    1    2    0    0  0.00000000000E+00  0.00000000000E+00 -0.20175502790E+02  0.28411505736E+02  0.20004068220E+02 0.  0.
        -11    1    3    3    0    0 -0.99126524865E+01 -0.13337641200E+01 -0.10041075467E+02  0.14172607482E+02  0.51100000000E-03 0. -1.
         11    1    3    3    0    0  0.99126524865E+01  0.13337641200E+01 -0.10134427324E+02  0.14238898254E+02  0.51100000000E-03 0.  1.
<mgrwt>
<rscale>  0 0.20004068E+02</rscale>
<asrwt>0</asrwt>
<pdfrwt beam="2">  1        4 0.37374621E-02 0.20004068E+02</pdfrwt>
<pdfrwt beam="1">  1       -4 0.63353870E-03 0.20004068E+02</pdfrwt>
<totfact> 0.12534370E+06</totfact>
</mgrwt>
</event>
<event>
 5    1  0.1154861E-006  0.2000268E+02  0.7818608E-02  0.1745275E+00
          4   -1    0    0  501    0  0.00000000000E+00  0.00000000000E+00  0.30837615208E+01  0.33949941263E+01  0.14200000000E+01 0. -1.
         -4   -1    0    0    0  501 -0.00000000000E+00 -0.00000000000E+00 -0.30549868580E+02  0.30582852553E+02  0.14200000000E+01 0.  1.
       1023    2    1    2    0    0  0.00000000000E+00  0.00000000000E+00 -0.27466107059E+02  0.33977846679E+02  0.20002675520E+02 0.  0.
        -11    1    3    3    0    0 -0.81562712853E+01 -0.57874891854E+01 -0.13874811945E+02  0.17103514233E+02  0.51100000000E-03 0.  1.
         11    1    3    3    0    0  0.81562712853E+01  0.57874891854E+01 -0.13591295114E+02  0.16874332446E+02  0.51100000000E-03 0. -1.
<mgrwt>
<rscale>  0 0.20002676E+02</rscale>
<asrwt>0</asrwt>
<pdfrwt beam="1">  1        4 0.50090307E-03 0.20002676E+02</pdfrwt>
<pdfrwt beam="2">  1       -4 0.47264578E-02 0.20002676E+02</pdfrwt>
<totfact> 0.12249327E+06</totfact>
</mgrwt>
</event>
<event>
 5    1  0.1165353E-006  0.2000213E+02  0.7818608E-02  0.1745286E+00
          4   -1    0    0  501    0  0.00000000000E+00  0.00000000000E+00  0.20470096957E+02  0.20519290178E+02  0.14200000000E+01 0.  1.
         -4   -1    0    0    0  501 -0.00000000000E+00 -0.00000000000E+00 -0.47266887634E+01  0.49353811065E+01  0.14200000000E+01 0. -1.
       1023    2    1    2    0    0  0.00000000000E+00  0.00000000000E+00  0.15743408193E+02  0.25454671285E+02  0.20002134603E+02 0.  0.
        -11    1    3    3    0    0  0.81343196383E+01 -0.58171204115E+01  0.77142870660E+01  0.12629975101E+02  0.51100000000E-03 0. -1.
         11    1    3    3    0    0 -0.81343196383E+01  0.58171204115E+01  0.80291211274E+01  0.12824696184E+02  0.51100000000E-03 0.  1.
<mgrwt>
<rscale>  0 0.20002135E+02</rscale>
<asrwt>0</asrwt>
<pdfrwt beam="1">  1        4 0.31690831E-02 0.20002135E+02</pdfrwt>
<pdfrwt beam="2">  1       -4 0.74702023E-03 0.20002135E+02</pdfrwt>
<totfact> 0.12697540E+06</totfact>
</mgrwt>
</event>
<event>
 4    1  0.1154861E-006  0.2009392E+02  0.7818608E-02  0.1743467E+00
         -4   -1    0    0    0  501 -0.00000000000E+00  0.00000000000E+00  0.12142975261E+02  0.12225720764E+02  0.14200000000E+01 0. -1.
          4   -1    0    0  501    0  0.00000000000E+00 -0.00000000000E+00 -0.81400982816E+01  0.82630260821E+01  0.14200000000E+01 0.  1.
        -11    1    1    2    0    0  0.61997757769E+01  0.79050982289E+01  0.18823844953E+01  0.10221113899E+02  0.51100000000E-03 0. -1.
         11    1    1    2    0    0 -0.61997757769E+01 -0.79050982289E+01  0.21204924843E+01  0.10267632947E+02  0.51100000000E-03 0.  1.
<mgrwt>
<rscale>  0 0.20093923E+02</rscale>
<asrwt>0</asrwt>
<pdfrwt beam="2">  1        4 0.12681438E-02 0.20093923E+02</pdfrwt>
<pdfrwt beam="1">  1       -4 0.18839710E-02 0.20093923E+02</pdfrwt>
<totfact> 0.12861338E+06</totfact>
</mgrwt>
</event>
<event>
 5    1  0.1154861E-006  0.2000045E+02  0.7818608E-02  0.1745319E+00
         -4   -1    0    0    0  501 -0.00000000000E+00  0.00000000000E+00  0.12736618922E+01  0.19075152989E+01  0.14200000000E+01 0. -1.
          4   -1    0    0  501    0  0.00000000000E+00 -0.00000000000E+00 -0.62229066993E+02  0.62245266316E+02  0.14200000000E+01 0.  1.
       1023    2    1    2    0    0  0.00000000000E+00  0.00000000000E+00 -0.60955405100E+02  0.64152781615E+02  0.20000449445E+02 0.  0.
        -11    1    3    3    0    0 -0.87630818347E+01 -0.48179757171E+01 -0.30474518467E+02  0.32073365419E+02  0.51100000000E-03 0.  1.
         11    1    3    3    0    0  0.87630818347E+01  0.48179757171E+01 -0.30480886633E+02  0.32079416196E+02  0.51100000000E-03 0. -1.
<mgrwt>
<rscale>  0 0.20000449E+02</rscale>
<asrwt>0</asrwt>
<pdfrwt beam="2">  1        4 0.96237048E-02 0.20000449E+02</pdfrwt>
<pdfrwt beam="1">  1       -4 0.24595209E-03 0.20000449E+02</pdfrwt>
<totfact> 0.10961747E+06</totfact>
</mgrwt>
</event>
<event>
 5    1  0.1154861E-006  0.2000031E+02  0.7818608E-02  0.1745322E+00
          4   -1    0    0  501    0  0.00000000000E+00  0.00000000000E+00  0.22034350056E+01  0.26213595373E+01  0.14200000000E+01 0.  1.
         -4   -1    0    0    0  501 -0.00000000000E+00 -0.00000000000E+00 -0.41022534390E+02  0.41047103769E+02  0.14200000000E+01 0. -1.
       1023    2    1    2    0    0  0.00000000000E+00  0.00000000000E+00 -0.38819099385E+02  0.43668463306E+02  0.20000305260E+02 0.  0.
        -11    1    3    3    0    0 -0.28564705328E+01 -0.95834986287E+01 -0.19380054878E+02  0.21808012225E+02  0.51100000000E-03 0. -1.
         11    1    3    3    0    0  0.28564705328E+01  0.95834986287E+01 -0.19439044507E+02  0.21860451081E+02  0.51100000000E-03 0.  1.
<mgrwt>
<rscale>  0 0.20000305E+02</rscale>
<asrwt>0</asrwt>
<pdfrwt beam="1">  1        4 0.37302802E-03 0.20000305E+02</pdfrwt>
<pdfrwt beam="2">  1       -4 0.63451966E-02 0.20000305E+02</pdfrwt>
<totfact> 0.11794729E+06</totfact>
</mgrwt>
</event>
<event>
 5    1  0.1154861E-006  0.2000029E+02  0.7818608E-02  0.1745322E+00
          4   -1    0    0  501    0  0.00000000000E+00  0.00000000000E+00  0.29078954201E+02  0.29113604679E+02  0.14200000000E+01 0.  1.
         -4   -1    0    0    0  501 -0.00000000000E+00 -0.00000000000E+00 -0.32540587624E+01  0.35503941230E+01  0.14200000000E+01 0. -1.
       1023    2    1    2    0    0  0.00000000000E+00  0.00000000000E+00  0.25824895439E+02  0.32663998803E+02  0.20000289832E+02 0.  0.
        -11    1    3    3    0    0 -0.81398583934E+01 -0.58090836647E+01  0.12932475729E+02  0.16347833998E+02  0.51100000000E-03 0. -1.
         11    1    3    3    0    0  0.81398583934E+01  0.58090836647E+01  0.12892419709E+02  0.16316164804E+02  0.51100000000E-03 0.  1.
<mgrwt>
<rscale>  0 0.20000290E+02</rscale>
<asrwt>0</asrwt>
<pdfrwt beam="1">  1        4 0.44991458E-02 0.20000290E+02</pdfrwt>
<pdfrwt beam="2">  1       -4 0.52608487E-03 0.20000290E+02</pdfrwt>
<totfact> 0.12318326E+06</totfact>
</mgrwt>
</event>
<event>
 5    1  0.1154861E-006  0.2000027E+02  0.7818608E-02  0.1745323E+00
          4   -1    0    0  501    0  0.00000000000E+00  0.00000000000E+00  0.78821370122E+02  0.78834160032E+02  0.14200000000E+01 0.  1.
         -4   -1    0    0    0  501 -0.00000000000E+00 -0.00000000000E+00 -0.85438269157E+00  0.16572174823E+01  0.14200000000E+01 0. -1.
       1023    2    1    2    0    0  0.00000000000E+00  0.00000000000E+00  0.77966987430E+02  0.80491377514E+02  0.20000268126E+02 0.  0.
        -11    1    3    3    0    0  0.82628080753E+01 -0.56327119149E+01  0.38841763519E+02  0.40108403537E+02  0.51100000000E-03 0. -1.
         11    1    3    3    0    0 -0.82628080753E+01  0.56327119149E+01  0.39125223912E+02  0.40382973977E+02  0.51100000000E-03 0.  1.
<mgrwt>
<rscale>  0 0.20000268E+02</rscale>
<asrwt>0</asrwt>
<pdfrwt beam="1">  1        4 0.12189104E-01 0.20000268E+02</pdfrwt>
<pdfrwt beam="2">  1       -4 0.19418387E-03 0.20000268E+02</pdfrwt>
<totfact> 0.10394850E+06</totfact>
</mgrwt>
</event>
<event>
 5    1  0.1154861E-006  0.2000030E+02  0.7818608E-02  0.1745322E+00
         -4   -1    0    0    0  501 -0.00000000000E+00  0.00000000000E+00  0.56406412085E+01  0.58166341851E+01  0.14200000000E+01 0. -1.
          4   -1    0    0  501    0  0.00000000000E+00 -0.00000000000E+00 -0.17251075117E+02  0.17309419190E+02  0.14200000000E+01 0.  1.
       1023    2    1    2    0    0  0.00000000000E+00  0.00000000000E+00 -0.11610433909E+02  0.23126053375E+02  0.20000304227E+02 0.  0.
        -11    1    3    3    0    0 -0.97993560882E+01 -0.19934208714E+01 -0.58560871333E+01  0.11588566058E+02  0.51100000000E-03 0.  1.
         11    1    3    3    0    0  0.97993560882E+01  0.19934208714E+01 -0.57543467753E+01  0.11537487317E+02  0.51100000000E-03 0. -1.
<mgrwt>
<rscale>  0 0.20000304E+02</rscale>
<asrwt>0</asrwt>
<pdfrwt beam="2">  1        4 0.26720375E-02 0.20000304E+02</pdfrwt>
<pdfrwt beam="1">  1       -4 0.88581689E-03 0.20000304E+02</pdfrwt>
<totfact> 0.12830971E+06</totfact>
</mgrwt>
</event>
<event>
 5    1  0.1154861E-006  0.2000070E+02  0.7818608E-02  0.1745314E+00
          4   -1    0    0  501    0  0.00000000000E+00  0.00000000000E+00  0.26644063599E+01  0.30191822156E+01  0.14200000000E+01 0.  1.
         -4   -1    0    0    0  501 -0.00000000000E+00 -0.00000000000E+00 -0.34821350553E+02  0.34850292026E+02  0.14200000000E+01 0. -1.
       1023    2    1    2    0    0  0.00000000000E+00  0.00000000000E+00 -0.32156944193E+02  0.37869474242E+02  0.20000700476E+02 0.  0.
        -11    1    3    3    0    0 -0.99806619244E+01  0.62720048644E+00 -0.16084955196E+02  0.18940242258E+02  0.51100000000E-03 0. -1.
         11    1    3    3    0    0  0.99806619244E+01 -0.62720048644E+00 -0.16071988997E+02  0.18929231984E+02  0.51100000000E-03 0.  1.
<mgrwt>
<rscale>  0 0.20000700E+02</rscale>
<asrwt>0</asrwt>
<pdfrwt beam="1">  1        4 0.43942541E-03 0.20000700E+02</pdfrwt>
<pdfrwt beam="2">  1       -4 0.53866473E-02 0.20000700E+02</pdfrwt>
<totfact> 0.12062096E+06</totfact>
</mgrwt>
</event>
<event>
 5    1  0.1154861E-006  0.2000025E+02  0.7818608E-02  0.1745323E+00
          4   -1    0    0  501    0  0.00000000000E+00  0.00000000000E+00  0.88124611812E+02  0.88136051687E+02  0.14200000000E+01 0. -1.
         -4   -1    0    0    0  501 -0.00000000000E+00 -0.00000000000E+00 -0.67445240292E+00  0.15720324563E+01  0.14200000000E+01 0.  1.
       1023    2    1    2    0    0  0.00000000000E+00  0.00000000000E+00  0.87450159409E+02  0.89708084144E+02  0.20000249499E+02 0.  0.
        -11    1    3    3    0    0 -0.99373867985E+01 -0.11180094518E+01  0.43591026240E+02  0.44723362692E+02  0.51100000000E-03 0. -1.
         11    1    3    3    0    0  0.99373867985E+01  0.11180094518E+01  0.43859133169E+02  0.44984721452E+02  0.51100000000E-03 0.  1.
<mgrwt>
<rscale>  0 0.20000249E+02</rscale>
<asrwt>0</asrwt>
<pdfrwt beam="1">  1        4 0.13627556E-01 0.20000249E+02</pdfrwt>
<pdfrwt beam="2">  1       -4 0.17368653E-03 0.20000249E+02</pdfrwt>
<totfact> 0.10104355E+06</totfact>
</mgrwt>
</event>
<event>
 5    1  0.1154861E-006  0.2000046E+02  0.7818608E-02  0.1745319E+00
          4   -1    0    0  501    0  0.00000000000E+00  0.00000000000E+00  0.24033669699E+02  0.24075582634E+02  0.14200000000E+01 0. -1.
         -4   -1    0    0    0  501 -0.00000000000E+00 -0.00000000000E+00 -0.39928848230E+01  0.42378684748E+01  0.14200000000E+01 0.  1.
       1023    2    1    2    0    0  0.00000000000E+00  0.00000000000E+00  0.20040784876E+02  0.28313451109E+02  0.20000461377E+02 0.  0.
        -11    1    3    3    0    0  0.34138187800E+01  0.93994057986E+01  0.99633168904E+01  0.14116326425E+02  0.51100000000E-03 0. -1.
         11    1    3    3    0    0 -0.34138187800E+01 -0.93994057986E+01  0.10077467985E+02  0.14197124684E+02  0.51100000000E-03 0.  1.
<mgrwt>
<rscale>  0 0.20000461E+02</rscale>
<asrwt>0</asrwt>
<pdfrwt beam="1">  1        4 0.37195565E-02 0.20000461E+02</pdfrwt>
<pdfrwt beam="2">  1       -4 0.63635896E-03 0.20000461E+02</pdfrwt>
<totfact> 0.12544197E+06</totfact>
</mgrwt>
</event>
<event>
 5    1  0.1154861E-006  0.2000117E+02  0.7818608E-02  0.1745305E+00
         -4   -1    0    0    0  501 -0.00000000000E+00  0.00000000000E+00  0.85474455109E+00  0.16574040689E+01  0.14200000000E+01 0.  1.
          4   -1    0    0  501    0  0.00000000000E+00 -0.00000000000E+00 -0.78811343089E+02  0.78824134626E+02  0.14200000000E+01 0. -1.
       1023    2    1    2    0    0  0.00000000000E+00  0.00000000000E+00 -0.77956598538E+02  0.80481538695E+02  0.20001170342E+02 0.  0.
        -11    1    3    3    0    0  0.27124108626E+01  0.96257210959E+01 -0.38998093528E+02  0.40259942603E+02  0.51100000000E-03 0. -1.
         11    1    3    3    0    0 -0.27124108626E+01 -0.96257210959E+01 -0.38958505010E+02  0.40221596091E+02  0.51100000000E-03 0.  1.
<mgrwt>
<rscale>  0 0.20001170E+02</rscale>
<asrwt>0</asrwt>
<pdfrwt beam="2">  1        4 0.12187545E-01 0.20001170E+02</pdfrwt>
<pdfrwt beam="1">  1       -4 0.19422623E-03 0.20001170E+02</pdfrwt>
<totfact> 0.10394232E+06</totfact>
</mgrwt>
</event>
<event>
 5    1  0.1154861E-006  0.2000350E+02  0.7818608E-02  0.1745258E+00
          4   -1    0    0  501    0  0.00000000000E+00  0.00000000000E+00  0.67252742775E+01  0.68735517826E+01  0.14200000000E+01 0. -1.
         -4   -1    0    0    0  501 -0.00000000000E+00 -0.00000000000E+00 -0.14529033665E+02  0.14598260829E+02  0.14200000000E+01 0.  1.
       1023    2    1    2    0    0  0.00000000000E+00  0.00000000000E+00 -0.78037593877E+01  0.21471812612E+02  0.20003501600E+02 0.  0.
        -11    1    3    3    0    0 -0.30873993459E-01  0.10001568312E+02 -0.38461361149E+01  0.10715646746E+02  0.51100000000E-03 0.  1.
         11    1    3    3    0    0  0.30873993459E-01 -0.10001568312E+02 -0.39576232728E+01  0.10756165866E+02  0.51100000000E-03 0. -1.
<mgrwt>
<rscale>  0 0.20003502E+02</rscale>
<asrwt>0</asrwt>
<pdfrwt beam="1">  1        4 0.10513887E-02 0.20003502E+02</pdfrwt>
<pdfrwt beam="2">  1       -4 0.22519671E-02 0.20003502E+02</pdfrwt>
<totfact> 0.12922399E+06</totfact>
</mgrwt>
</event>
<event>
 5    1  0.1154861E-006  0.2000043E+02  0.7818608E-02  0.1745319E+00
          4   -1    0    0  501    0  0.00000000000E+00  0.00000000000E+00  0.17921132717E+01  0.22864973165E+01  0.14200000000E+01 0. -1.
         -4   -1    0    0    0  501 -0.00000000000E+00 -0.00000000000E+00 -0.48532400969E+02  0.48553170276E+02  0.14200000000E+01 0.  1.
       1023    2    1    2    0    0  0.00000000000E+00  0.00000000000E+00 -0.46740287698E+02  0.50839667592E+02  0.20000432667E+02 0.  0.
        -11    1    3    3    0    0 -0.89261146046E+01  0.45085318628E+01 -0.23258040476E+02  0.25316769709E+02  0.51100000000E-03 0.  1.
         11    1    3    3    0    0  0.89261146046E+01 -0.45085318628E+01 -0.23482247222E+02  0.25522897883E+02  0.51100000000E-03 0. -1.
<mgrwt>
<rscale>  0 0.20000433E+02</rscale>
<asrwt>0</asrwt>
<pdfrwt beam="1">  1        4 0.31533695E-03 0.20000433E+02</pdfrwt>
<pdfrwt beam="2">  1       -4 0.75061496E-02 0.20000433E+02</pdfrwt>
<totfact> 0.11484547E+06</totfact>
</mgrwt>
</event>
<event>
 5    1  0.1154861E-006  0.2000230E+02  0.7818608E-02  0.1745282E+00
         -4   -1    0    0    0  501 -0.00000000000E+00  0.00000000000E+00  0.11971748347E+01  0.18573173086E+01  0.14200000000E+01 0. -1.
          4   -1    0    0  501    0  0.00000000000E+00 -0.00000000000E+00 -0.64822771577E+02  0.64838322888E+02  0.14200000000E+01 0.  1.
       1023    2    1    2    0    0  0.00000000000E+00  0.00000000000E+00 -0.63625596742E+02  0.66695640196E+02  0.20002296378E+02 0.  0.
        -11    1    3    3    0    0  0.62990790988E+01  0.77678666867E+01 -0.31581436116E+02  0.33127107597E+02  0.51100000000E-03 0. -1.
         11    1    3    3    0    0 -0.62990790988E+01 -0.77678666867E+01 -0.32044160626E+02  0.33568532599E+02  0.51100000000E-03 0.  1.
<mgrwt>
<rscale>  0 0.20002296E+02</rscale>
<asrwt>0</asrwt>
<pdfrwt beam="2">  1        4 0.10024708E-01 0.20002296E+02</pdfrwt>
<pdfrwt beam="1">  1       -4 0.23615724E-03 0.20002296E+02</pdfrwt>
<totfact> 0.10866528E+06</totfact>
</mgrwt>
</event>
<event>
 5    1  0.1154861E-006  0.2000042E+02  0.7818608E-02  0.1745320E+00
         -4   -1    0    0    0  501 -0.00000000000E+00  0.00000000000E+00  0.36051732113E+02  0.36079686644E+02  0.14200000000E+01 0. -1.
          4   -1    0    0  501    0  0.00000000000E+00 -0.00000000000E+00 -0.25611515467E+01  0.29284632907E+01  0.14200000000E+01 0.  1.
       1023    2    1    2    0    0  0.00000000000E+00  0.00000000000E+00  0.33490580566E+02  0.39008149935E+02  0.20000419363E+02 0.  0.
        -11    1    3    3    0    0  0.82785613155E+00 -0.99658819471E+01  0.16758323119E+02  0.19515264353E+02  0.51100000000E-03 0.  1.
         11    1    3    3    0    0 -0.82785613155E+00  0.99658819471E+01  0.16732257447E+02  0.19492885582E+02  0.51100000000E-03 0. -1.
<mgrwt>
<rscale>  0 0.20000419E+02</rscale>
<asrwt>0</asrwt>
<pdfrwt beam="2">  1        4 0.42442842E-03 0.20000419E+02</pdfrwt>
<pdfrwt beam="1">  1       -4 0.55768254E-02 0.20000419E+02</pdfrwt>
<totfact> 0.12008517E+06</totfact>
</mgrwt>
</event>
<event>
 4    1  0.1154861E-006  0.2001578E+02  0.7818608E-02  0.1745014E+00
          4   -1    0    0  501    0  0.00000000000E+00  0.00000000000E+00  0.36846231474E+02  0.36873583686E+02  0.14200000000E+01 0.  1.
         -4   -1    0    0    0  501 -0.00000000000E+00 -0.00000000000E+00 -0.25024277544E+01  0.28772460211E+01  0.14200000000E+01 0. -1.
        -11    1    1    2    0    0  0.94170029686E+01  0.33767368184E+01  0.17717973976E+02  0.20347208617E+02  0.51100000000E-03 0. -1.
         11    1    1    2    0    0 -0.94170029686E+01 -0.33767368184E+01  0.16625829744E+02  0.19403621089E+02  0.51100000000E-03 0.  1.
<mgrwt>
<rscale>  0 0.20015784E+02</rscale>
<asrwt>0</asrwt>
<pdfrwt beam="1">  1        4 0.56995872E-02 0.20015784E+02</pdfrwt>
<pdfrwt beam="2">  1       -4 0.41592508E-03 0.20015784E+02</pdfrwt>
<totfact> 0.11955114E+06</totfact>
</mgrwt>
</event>
<event>
 5    1  0.1154861E-006  0.2000114E+02  0.7818608E-02  0.1745305E+00
          4   -1    0    0  501    0  0.00000000000E+00  0.00000000000E+00  0.11137885896E+03  0.11138791058E+03  0.14200000000E+01 0. -1.
         -4   -1    0    0    0  501 -0.00000000000E+00 -0.00000000000E+00 -0.32167597073E+00  0.14559791998E+01  0.14200000000E+01 0.  1.
       1023    2    1    2    0    0  0.00000000000E+00  0.00000000000E+00  0.11105718299E+03  0.11284388977E+03  0.20001139141E+02 0.  0.
        -11    1    3    3    0    0 -0.92916591587E+01  0.36969706230E+01  0.56059939964E+02  0.56944880286E+02  0.51100000000E-03 0. -1.
         11    1    3    3    0    0  0.92916591587E+01 -0.36969706230E+01  0.54997243021E+02  0.55899009489E+02  0.51100000000E-03 0.  1.
<mgrwt>
<rscale>  0 0.20001139E+02</rscale>
<asrwt>0</asrwt>
<pdfrwt beam="1">  1        4 0.17223152E-01 0.20001139E+02</pdfrwt>
<pdfrwt beam="2">  1       -4 0.13743905E-03 0.20001139E+02</pdfrwt>
<totfact> 0.94488287E+05</totfact>
</mgrwt>
</event>
<event>
 5    1  0.1154861E-006  0.2000650E+02  0.7818608E-02  0.1745199E+00
         -4   -1    0    0    0  501 -0.00000000000E+00  0.00000000000E+00  0.23751499325E+01  0.27672616793E+01  0.14200000000E+01 0.  1.
          4   -1    0    0  501    0  0.00000000000E+00 -0.00000000000E+00 -0.38511343644E+02  0.38537514051E+02  0.14200000000E+01 0. -1.
       1023    2    1    2    0    0  0.00000000000E+00  0.00000000000E+00 -0.36136193711E+02  0.41304775730E+02  0.20006498999E+02 0.  0.
        -11    1    3    3    0    0  0.49664026596E+01  0.86821825352E+01 -0.18356777345E+02  0.20904944958E+02  0.51100000000E-03 0. -1.
         11    1    3    3    0    0 -0.49664026596E+01 -0.86821825352E+01 -0.17779416366E+02  0.20399830772E+02  0.51100000000E-03 0.  1.
<mgrwt>
<rscale>  0 0.20006499E+02</rscale>
<asrwt>0</asrwt>
<pdfrwt beam="2">  1        4 0.59569972E-02 0.20006499E+02</pdfrwt>
<pdfrwt beam="1">  1       -4 0.39758326E-03 0.20006499E+02</pdfrwt>
<totfact> 0.11894488E+06</totfact>
</mgrwt>
</event>
<event>
 5    1  0.1154861E-006  0.2000141E+02  0.7818608E-02  0.1745300E+00
          4   -1    0    0  501    0  0.00000000000E+00  0.00000000000E+00  0.20550411021E+02  0.20599412446E+02  0.14200000000E+01 0. -1.
         -4   -1    0    0    0  501 -0.00000000000E+00 -0.00000000000E+00 -0.47070857287E+01  0.49166102202E+01  0.14200000000E+01 0.  1.
       1023    2    1    2    0    0  0.00000000000E+00  0.00000000000E+00  0.15843325292E+02  0.25516022667E+02  0.20001411360E+02 0.  0.
        -11    1    3    3    0    0 -0.94707876894E+01  0.32111546604E+01  0.80267066699E+01  0.12823234925E+02  0.51100000000E-03 0.  1.
         11    1    3    3    0    0  0.94707876894E+01 -0.32111546604E+01  0.78166186224E+01  0.12692787742E+02  0.51100000000E-03 0. -1.
<mgrwt>
<rscale>  0 0.20001411E+02</rscale>
<asrwt>0</asrwt>
<pdfrwt beam="1">  1        4 0.31814883E-02 0.20001411E+02</pdfrwt>
<pdfrwt beam="2">  1       -4 0.74405365E-03 0.20001411E+02</pdfrwt>
<totfact> 0.12695074E+06</totfact>
</mgrwt>
</event>
<event>
 5    1  0.1154861E-006  0.2000327E+02  0.7818608E-02  0.1745263E+00
         -4   -1    0    0    0  501 -0.00000000000E+00  0.00000000000E+00  0.49773127642E+02  0.49793379432E+02  0.14200000000E+01 0.  1.
          4   -1    0    0  501    0  0.00000000000E+00 -0.00000000000E+00 -0.17356249044E+01  0.22424972261E+01  0.14200000000E+01 0. -1.
       1023    2    1    2    0    0  0.00000000000E+00  0.00000000000E+00  0.48037502737E+02  0.52035876658E+02  0.20003269491E+02 0.  0.
        -11    1    3    3    0    0  0.28247867135E+01 -0.95940267985E+01  0.24250362737E+02  0.26231752960E+02  0.51100000000E-03 0.  1.
         11    1    3    3    0    0 -0.28247867135E+01  0.95940267985E+01  0.23787140000E+02  0.25804123698E+02  0.51100000000E-03 0. -1.
<mgrwt>
<rscale>  0 0.20003269E+02</rscale>
<asrwt>0</asrwt>
<pdfrwt beam="2">  1        4 0.30756723E-03 0.20003269E+02</pdfrwt>
<pdfrwt beam="1">  1       -4 0.76979520E-02 0.20003269E+02</pdfrwt>
<totfact> 0.11431670E+06</totfact>
</mgrwt>
</event>
<event>
 5    1  0.1154861E-006  0.2000096E+02  0.7818608E-02  0.1745309E+00
          4   -1    0    0  501    0  0.00000000000E+00  0.00000000000E+00  0.33761070247E+01  0.36625808718E+01  0.14200000000E+01 0. -1.
         -4   -1    0    0    0  501 -0.00000000000E+00 -0.00000000000E+00 -0.28111987007E+02  0.28147827865E+02  0.14200000000E+01 0.  1.
       1023    2    1    2    0    0  0.00000000000E+00  0.00000000000E+00 -0.24735879983E+02  0.31810408737E+02  0.20000958614E+02 0.  0.
        -11    1    3    3    0    0 -0.99856004026E+01  0.54312421817E+00 -0.12445640800E+02  0.15965624776E+02  0.51100000000E-03 0.  1.
         11    1    3    3    0    0  0.99856004026E+01 -0.54312421817E+00 -0.12290239183E+02  0.15844783960E+02  0.51100000000E-03 0. -1.
<mgrwt>
<rscale>  0 0.20000959E+02</rscale>
<asrwt>0</asrwt>
<pdfrwt beam="1">  1        4 0.54419454E-03 0.20000959E+02</pdfrwt>
<pdfrwt beam="2">  1       -4 0.43497144E-02 0.20000959E+02</pdfrwt>
<totfact> 0.12360955E+06</totfact>
</mgrwt>
</event>
<event>
 5    1  0.1154861E-006  0.2000037E+02  0.7818608E-02  0.1745321E+00
          4   -1    0    0  501    0  0.00000000000E+00  0.00000000000E+00  0.43534697639E+01  0.45792028767E+01  0.14200000000E+01 0.  1.
         -4   -1    0    0    0  501 -0.00000000000E+00 -0.00000000000E+00 -0.22141493818E+02  0.22186981509E+02  0.14200000000E+01 0. -1.
       1023    2    1    2    0    0  0.00000000000E+00  0.00000000000E+00 -0.17788024054E+02  0.26766184386E+02  0.20000370667E+02 0.  0.
        -11    1    3    3    0    0 -0.99076817456E+01  0.13570118632E+01 -0.89050215598E+01  0.13390408807E+02  0.51100000000E-03 0.  1.
         11    1    3    3    0    0  0.99076817456E+01 -0.13570118632E+01 -0.88830024938E+01  0.13375775579E+02  0.51100000000E-03 0. -1.
<mgrwt>
<rscale>  0 0.20000371E+02</rscale>
<asrwt>0</asrwt>
<pdfrwt beam="1">  1        4 0.69062773E-03 0.20000371E+02</pdfrwt>
<pdfrwt beam="2">  1       -4 0.34272468E-02 0.20000371E+02</pdfrwt>
<totfact> 0.12627736E+06</totfact>
</mgrwt>
</event>
<event>
 5    1  0.1155976E-006  0.2000257E+02  0.7818608E-02  0.1745277E+00
         -4   -1    0    0    0  501 -0.00000000000E+00  0.00000000000E+00  0.51463539928E+01  0.53386664458E+01  0.14200000000E+01 0.  1.
          4   -1    0    0  501    0  0.00000000000E+00 -0.00000000000E+00 -0.18860242172E+02  0.18913622995E+02  0.14200000000E+01 0. -1.
       1023    2    1    2    0    0  0.00000000000E+00  0.00000000000E+00 -0.13713888179E+02  0.24252289441E+02  0.20002570188E+02 0.  0.
        -11    1    3    3    0    0 -0.34641462337E+01  0.93821849304E+01 -0.68566216904E+01  0.12125962414E+02  0.51100000000E-03 0. -1.
         11    1    3    3    0    0  0.34641462337E+01 -0.93821849304E+01 -0.68572664889E+01  0.12126327027E+02  0.51100000000E-03 0.  1.
<mgrwt>
<rscale>  0 0.20002570E+02</rscale>
<asrwt>0</asrwt>
<pdfrwt beam="2">  1        4 0.29204752E-02 0.20002570E+02</pdfrwt>
<pdfrwt beam="1">  1       -4 0.81064626E-03 0.20002570E+02</pdfrwt>
<totfact> 0.12764206E+06</totfact>
</mgrwt>
</event>
<event>
 5    1  0.1154861E-006  0.2000015E+02  0.7818608E-02  0.1745325E+00
          4   -1    0    0  501    0  0.00000000000E+00  0.00000000000E+00  0.35851259138E+01  0.38561026721E+01  0.14200000000E+01 0.  1.
         -4   -1    0    0    0  501 -0.00000000000E+00 -0.00000000000E+00 -0.26587084470E+02  0.26624978134E+02  0.14200000000E+01 0. -1.
       1023    2    1    2    0    0  0.00000000000E+00  0.00000000000E+00 -0.23001958557E+02  0.30481080806E+02  0.20000154741E+02 0.  0.
        -11    1    3    3    0    0  0.15582644799E+01 -0.98778861174E+01 -0.11459948344E+02  0.15209577202E+02  0.51100000000E-03 0.  1.
         11    1    3    3    0    0 -0.15582644799E+01  0.98778861174E+01 -0.11542010212E+02  0.15271503604E+02  0.51100000000E-03 0. -1.
<mgrwt>
<rscale>  0 0.20000155E+02</rscale>
<asrwt>0</asrwt>
<pdfrwt beam="1">  1        4 0.57531711E-03 0.20000155E+02</pdfrwt>
<pdfrwt beam="2">  1       -4 0.41140798E-02 0.20000155E+02</pdfrwt>
<totfact> 0.12430494E+06</totfact>
</mgrwt>
</event>
<event>
 5    1  0.1194213E-006  0.2000128E+02  0.7818608E-02  0.1745303E+00
          4   -1    0    0  501    0  0.00000000000E+00  0.00000000000E+00  0.49470252014E+01  0.51467910724E+01  0.14200000000E+01 0. -1.
         -4   -1    0    0    0  501 -0.00000000000E+00 -0.00000000000E+00 -0.19590671220E+02  0.19642067072E+02  0.14200000000E+01 0.  1.
       1023    2    1    2    0    0  0.00000000000E+00  0.00000000000E+00 -0.14643646019E+02  0.24788858145E+02  0.20001277944E+02 0.  0.
        -11    1    3    3    0    0  0.92590577255E+01 -0.37789453672E+01 -0.72636714579E+01  0.12360076916E+02  0.51100000000E-03 0. -1.
         11    1    3    3    0    0 -0.92590577255E+01  0.37789453672E+01 -0.73799745610E+01  0.12428781229E+02  0.51100000000E-03 0.  1.
<mgrwt>
<rscale>  0 0.20001278E+02</rscale>
<asrwt>0</asrwt>
<pdfrwt beam="1">  1        4 0.78040094E-03 0.20001278E+02</pdfrwt>
<pdfrwt beam="2">  1       -4 0.30332695E-02 0.20001278E+02</pdfrwt>
<totfact> 0.12735741E+06</totfact>
</mgrwt>
</event>
<event>
 5    1  0.1154861E-006  0.2000096E+02  0.7818608E-02  0.1745309E+00
         -4   -1    0    0    0  501 -0.00000000000E+00  0.00000000000E+00  0.88198045569E+00  0.16716128512E+01  0.14200000000E+01 0.  1.
          4   -1    0    0  501    0  0.00000000000E+00 -0.00000000000E+00 -0.77530377093E+02  0.77543379938E+02  0.14200000000E+01 0. -1.
       1023    2    1    2    0    0  0.00000000000E+00  0.00000000000E+00 -0.76648396638E+02  0.79214992790E+02  0.20000959364E+02 0.  0.
        -11    1    3    3    0    0  0.76909231237E+01  0.63915032011E+01 -0.38678041636E+02  0.39949875053E+02  0.51100000000E-03 0. -1.
         11    1    3    3    0    0 -0.76909231237E+01 -0.63915032011E+01 -0.37970355001E+02  0.39265117736E+02  0.51100000000E-03 0.  1.
<mgrwt>
<rscale>  0 0.20000959E+02</rscale>
<asrwt>0</asrwt>
<pdfrwt beam="2">  1        4 0.11989488E-01 0.20000959E+02</pdfrwt>
<pdfrwt beam="1">  1       -4 0.19743053E-03 0.20000959E+02</pdfrwt>
<totfact> 0.10435893E+06</totfact>
</mgrwt>
</event>
<event>
 4    1  0.1154861E-006  0.2005455E+02  0.7818608E-02  0.1744245E+00
          4   -1    0    0  501    0  0.00000000000E+00  0.00000000000E+00  0.77749474123E+02  0.77762440332E+02  0.14200000000E+01 0. -1.
         -4   -1    0    0    0  501 -0.00000000000E+00 -0.00000000000E+00 -0.88630419720E+00  0.16738981839E+01  0.14200000000E+01 0.  1.
        -11    1    1    2    0    0 -0.98876128582E+01 -0.15576875477E+01  0.40791523441E+02  0.42001662627E+02  0.51100000000E-03 0. -1.
         11    1    1    2    0    0  0.98876128582E+01  0.15576875477E+01  0.36071646485E+02  0.37434675889E+02  0.51100000000E-03 0.  1.
<mgrwt>
<rscale>  0 0.20054550E+02</rscale>
<asrwt>0</asrwt>
<pdfrwt beam="1">  1        4 0.12023039E-01 0.20054550E+02</pdfrwt>
<pdfrwt beam="2">  1       -4 0.19793605E-03 0.20054550E+02</pdfrwt>
<totfact> 0.10372871E+06</totfact>
</mgrwt>
</event>
<event>
 5    1  0.1154861E-006  0.2000030E+02  0.7818608E-02  0.1745322E+00
         -4   -1    0    0    0  501 -0.00000000000E+00  0.00000000000E+00  0.28591718154E+02  0.28626958396E+02  0.14200000000E+01 0. -1.
          4   -1    0    0  501    0  0.00000000000E+00 -0.00000000000E+00 -0.33144497069E+01  0.36058254061E+01  0.14200000000E+01 0.  1.
       1023    2    1    2    0    0  0.00000000000E+00  0.00000000000E+00  0.25277268447E+02  0.32232783802E+02  0.20000301285E+02 0.  0.
        -11    1    3    3    0    0  0.99952550971E+01 -0.31242134707E+00  0.12665652377E+02  0.16137579805E+02  0.51100000000E-03 0. -1.
         11    1    3    3    0    0 -0.99952550971E+01  0.31242134707E+00  0.12611616070E+02  0.16095203997E+02  0.51100000000E-03 0.  1.
<mgrwt>
<rscale>  0 0.20000301E+02</rscale>
<asrwt>0</asrwt>
<pdfrwt beam="2">  1        4 0.53503965E-03 0.20000301E+02</pdfrwt>
<pdfrwt beam="1">  1       -4 0.44238501E-02 0.20000301E+02</pdfrwt>
<totfact> 0.12340215E+06</totfact>
</mgrwt>
</event>
<event>
 5    1  0.1171618E-006  0.2000136E+02  0.7818608E-02  0.1745301E+00
          4   -1    0    0  501    0  0.00000000000E+00  0.00000000000E+00  0.16941814661E+02  0.17001220074E+02  0.14200000000E+01 0. -1.
         -4   -1    0    0    0  501 -0.00000000000E+00 -0.00000000000E+00 -0.57470532910E+01  0.59198835740E+01  0.14200000000E+01 0.  1.
       1023    2    1    2    0    0  0.00000000000E+00  0.00000000000E+00  0.11194761370E+02  0.22921103648E+02  0.20001357712E+02 0.  0.
        -11    1    3    3    0    0  0.82485449169E+01  0.56542026381E+01  0.56790318668E+01  0.11500430597E+02  0.51100000000E-03 0.  1.
         11    1    3    3    0    0 -0.82485449169E+01 -0.56542026381E+01  0.55157295032E+01  0.11420673051E+02  0.51100000000E-03 0. -1.
<mgrwt>
<rscale>  0 0.20001358E+02</rscale>
<asrwt>0</asrwt>
<pdfrwt beam="1">  1        4 0.26242973E-02 0.20001358E+02</pdfrwt>
<pdfrwt beam="2">  1       -4 0.90202634E-03 0.20001358E+02</pdfrwt>
<totfact> 0.12841317E+06</totfact>
</mgrwt>
</event>
<event>
 5    1  0.1154861E-006  0.2000190E+02  0.7818608E-02  0.1745290E+00
          4   -1    0    0  501    0  0.00000000000E+00  0.00000000000E+00  0.46706155704E+02  0.46727736738E+02  0.14200000000E+01 0.  1.
         -4   -1    0    0    0  501 -0.00000000000E+00 -0.00000000000E+00 -0.18814624966E+01  0.23571807580E+01  0.14200000000E+01 0. -1.
       1023    2    1    2    0    0  0.00000000000E+00  0.00000000000E+00  0.44824693208E+02  0.49084917496E+02  0.20001900021E+02 0.  0.
        -11    1    3    3    0    0  0.80861501943E+01  0.58842671042E+01  0.22639611645E+02  0.24749998788E+02  0.51100000000E-03 0.  1.
         11    1    3    3    0    0 -0.80861501943E+01 -0.58842671042E+01  0.22185081563E+02  0.24334918708E+02  0.51100000000E-03 0. -1.
<mgrwt>
<rscale>  0 0.20001900E+02</rscale>
<asrwt>0</asrwt>
<pdfrwt beam="1">  1        4 0.72238156E-02 0.20001900E+02</pdfrwt>
<pdfrwt beam="2">  1       -4 0.32770959E-03 0.20001900E+02</pdfrwt>
<totfact> 0.11556658E+06</totfact>
</mgrwt>
</event>
<event>
 5    1  0.1154861E-006  0.2000040E+02  0.7818608E-02  0.1745320E+00
          4   -1    0    0  501    0  0.00000000000E+00  0.00000000000E+00  0.39964188230E+00  0.14751656294E+01  0.14200000000E+01 0.  1.
         -4   -1    0    0    0  501 -0.00000000000E+00 -0.00000000000E+00 -0.10559890156E+03  0.10560844858E+03  0.14200000000E+01 0. -1.
       1023    2    1    2    0    0  0.00000000000E+00  0.00000000000E+00 -0.10519925968E+03  0.10708361421E+03  0.20000404861E+02 0.  0.
        -11    1    3    3    0    0  0.99946335826E+01 -0.32809129742E+00 -0.52273776698E+02  0.53221688013E+02  0.51100000000E-03 0. -1.
         11    1    3    3    0    0 -0.99946335826E+01  0.32809129742E+00 -0.52925482979E+02  0.53861926192E+02  0.51100000000E-03 0.  1.
<mgrwt>
<rscale>  0 0.20000405E+02</rscale>
<asrwt>0</asrwt>
<pdfrwt beam="1">  1        4 0.14495043E-03 0.20000405E+02</pdfrwt>
<pdfrwt beam="2">  1       -4 0.16329442E-01 0.20000405E+02</pdfrwt>
<totfact> 0.96036278E+05</totfact>
</mgrwt>
</event>
<event>
 4    1  0.1154861E-006  0.2001939E+02  0.7818608E-02  0.1744943E+00
          4   -1    0    0  501    0  0.00000000000E+00  0.00000000000E+00  0.78069755989E+01  0.79350657213E+01  0.14200000000E+01 0. -1.
         -4   -1    0    0    0  501 -0.00000000000E+00 -0.00000000000E+00 -0.12561060763E+02  0.12641069871E+02  0.14200000000E+01 0.  1.
        -11    1    1    2    0    0  0.92049512483E+01  0.39322808849E+01 -0.23700079867E+01  0.10286442464E+02  0.51100000000E-03 0. -1.
         11    1    1    2    0    0 -0.92049512483E+01 -0.39322808849E+01 -0.23840771776E+01  0.10289693129E+02  0.51100000000E-03 0.  1.
<mgrwt>
<rscale>  0 0.20019391E+02</rscale>
<asrwt>0</asrwt>
<pdfrwt beam="1">  1        4 0.12170808E-02 0.20019391E+02</pdfrwt>
<pdfrwt beam="2">  1       -4 0.19484785E-02 0.20019391E+02</pdfrwt>
<totfact> 0.12954167E+06</totfact>
</mgrwt>
</event>
<event>
 5    1  0.1154861E-006  0.2000374E+02  0.7818608E-02  0.1745254E+00
         -4   -1    0    0    0  501 -0.00000000000E+00  0.00000000000E+00  0.16096884823E+01  0.21465080969E+01  0.14200000000E+01 0. -1.
          4   -1    0    0  501    0  0.00000000000E+00 -0.00000000000E+00 -0.52717493891E+02  0.52736615004E+02  0.14200000000E+01 0.  1.
       1023    2    1    2    0    0  0.00000000000E+00  0.00000000000E+00 -0.51107805408E+02  0.54883123101E+02  0.20003735343E+02 0.  0.
        -11    1    3    3    0    0  0.62906475211E+01  0.77744647261E+01 -0.25968262382E+02  0.27827418123E+02  0.51100000000E-03 0. -1.
         11    1    3    3    0    0 -0.62906475211E+01 -0.77744647261E+01 -0.25139543026E+02  0.27055704978E+02  0.51100000000E-03 0.  1.
<mgrwt>
<rscale>  0 0.20003735E+02</rscale>
<asrwt>0</asrwt>
<pdfrwt beam="2">  1        4 0.81531472E-02 0.20003735E+02</pdfrwt>
<pdfrwt beam="1">  1       -4 0.29040909E-03 0.20003735E+02</pdfrwt>
<totfact> 0.11315341E+06</totfact>
</mgrwt>
</event>
<event>
 5    1  0.1154861E-006  0.2000208E+02  0.7818608E-02  0.1745287E+00
          4   -1    0    0  501    0  0.00000000000E+00  0.00000000000E+00  0.53266248612E+02  0.53285172808E+02  0.14200000000E+01 0.  1.
         -4   -1    0    0    0  501 -0.00000000000E+00 -0.00000000000E+00 -0.15871983148E+01  0.21296944594E+01  0.14200000000E+01 0. -1.
       1023    2    1    2    0    0  0.00000000000E+00  0.00000000000E+00  0.51679050297E+02  0.55414867268E+02  0.20002081758E+02 0.  0.
        -11    1    3    3    0    0  0.93255951257E+01  0.36129481422E+01  0.25766242692E+02  0.27639091545E+02  0.51100000000E-03 0.  1.
         11    1    3    3    0    0 -0.93255951257E+01 -0.36129481422E+01  0.25912807605E+02  0.27775775722E+02  0.51100000000E-03 0. -1.
<mgrwt>
<rscale>  0 0.20002082E+02</rscale>
<asrwt>0</asrwt>
<pdfrwt beam="1">  1        4 0.82379938E-02 0.20002082E+02</pdfrwt>
<pdfrwt beam="2">  1       -4 0.28737053E-03 0.20002082E+02</pdfrwt>
<totfact> 0.11295936E+06</totfact>
</mgrwt>
</event>
<event>
 5    1  0.1154861E-006  0.2000189E+02  0.7818608E-02  0.1745290E+00
          4   -1    0    0  501    0  0.00000000000E+00  0.00000000000E+00  0.41743761767E+02  0.41767906896E+02  0.14200000000E+01 0.  1.
         -4   -1    0    0    0  501 -0.00000000000E+00 -0.00000000000E+00 -0.21585218452E+01  0.25837214549E+01  0.14200000000E+01 0. -1.
       1023    2    1    2    0    0  0.00000000000E+00  0.00000000000E+00  0.39585239922E+02  0.44351628351E+02  0.20001892853E+02 0.  0.
        -11    1    3    3    0    0 -0.82638943384E+01 -0.56312002694E+01  0.20077990186E+02  0.22430516184E+02  0.51100000000E-03 0. -1.
         11    1    3    3    0    0  0.82638943384E+01  0.56312002694E+01  0.19507249736E+02  0.21921112167E+02  0.51100000000E-03 0.  1.
<mgrwt>
<rscale>  0 0.20001893E+02</rscale>
<asrwt>0</asrwt>
<pdfrwt beam="1">  1        4 0.64566815E-02 0.20001893E+02</pdfrwt>
<pdfrwt beam="2">  1       -4 0.36664530E-03 0.20001893E+02</pdfrwt>
<totfact> 0.11762324E+06</totfact>
</mgrwt>
</event>
<event>
 5    1  0.1154861E-006  0.2000351E+02  0.7818608E-02  0.1745258E+00
         -4   -1    0    0    0  501 -0.00000000000E+00  0.00000000000E+00  0.38842074893E+02  0.38868022615E+02  0.14200000000E+01 0. -1.
          4   -1    0    0  501    0  0.00000000000E+00 -0.00000000000E+00 -0.23507586415E+01  0.27463550737E+01  0.14200000000E+01 0.  1.
       1023    2    1    2    0    0  0.00000000000E+00  0.00000000000E+00  0.36491316251E+02  0.41614377688E+02  0.20003506409E+02 0.  0.
        -11    1    3    3    0    0 -0.93005086188E+01 -0.36785505649E+01  0.18375110219E+02  0.20920704354E+02  0.51100000000E-03 0.  1.
         11    1    3    3    0    0  0.93005086188E+01  0.36785505649E+01  0.18116206032E+02  0.20693673335E+02  0.51100000000E-03 0. -1.
<mgrwt>
<rscale>  0 0.20003506E+02</rscale>
<asrwt>0</asrwt>
<pdfrwt beam="2">  1        4 0.39408165E-03 0.20003506E+02</pdfrwt>
<pdfrwt beam="1">  1       -4 0.60081303E-02 0.20003506E+02</pdfrwt>
<totfact> 0.11883910E+06</totfact>
</mgrwt>
</event>
<event>
 5    1  0.1154861E-006  0.2000079E+02  0.7818608E-02  0.1745312E+00
          4   -1    0    0  501    0  0.00000000000E+00  0.00000000000E+00  0.39598261671E+02  0.39623714204E+02  0.14200000000E+01 0. -1.
         -4   -1    0    0    0  501 -0.00000000000E+00 -0.00000000000E+00 -0.22975315336E+01  0.27009352358E+01  0.14200000000E+01 0.  1.
       1023    2    1    2    0    0  0.00000000000E+00  0.00000000000E+00  0.37300730137E+02  0.42324649440E+02  0.20000787021E+02 0.  0.
        -11    1    3    3    0    0 -0.86141962509E+01  0.50797133680E+01  0.18645560233E+02  0.21158090216E+02  0.51100000000E-03 0.  1.
         11    1    3    3    0    0  0.86141962509E+01 -0.50797133680E+01  0.18655169905E+02  0.21166559224E+02  0.51100000000E-03 0. -1.
<mgrwt>
<rscale>  0 0.20000787E+02</rscale>
<asrwt>0</asrwt>
<pdfrwt beam="1">  1        4 0.61250294E-02 0.20000787E+02</pdfrwt>
<pdfrwt beam="2">  1       -4 0.38645532E-03 0.20000787E+02</pdfrwt>
<totfact> 0.11854818E+06</totfact>
</mgrwt>
</event>
<event>
 4    1  0.1154861E-006  0.2008991E+02  0.7818608E-02  0.1743546E+00
         -4   -1    0    0    0  501 -0.00000000000E+00  0.00000000000E+00  0.80059612575E+00  0.16301393059E+01  0.14200000000E+01 0.  1.
          4   -1    0    0  501    0  0.00000000000E+00 -0.00000000000E+00 -0.82183303629E+02  0.82195570412E+02  0.14200000000E+01 0. -1.
        -11    1    1    2    0    0  0.90188741551E+01 -0.44084100670E+01 -0.39204611909E+02  0.40469442368E+02  0.51100000000E-03 0.  1.
         11    1    1    2    0    0 -0.90188741551E+01  0.44084100670E+01 -0.42178095594E+02  0.43356267350E+02  0.51100000000E-03 0. -1.
<mgrwt>
<rscale>  0 0.20089911E+02</rscale>
<asrwt>0</asrwt>
<pdfrwt beam="2">  1        4 0.12708335E-01 0.20089911E+02</pdfrwt>
<pdfrwt beam="1">  1       -4 0.18792331E-03 0.20089911E+02</pdfrwt>
<totfact> 0.10195894E+06</totfact>
</mgrwt>
</event>
<event>
 5    1  0.1154861E-006  0.2000067E+02  0.7818608E-02  0.1745315E+00
          4   -1    0    0  501    0  0.00000000000E+00  0.00000000000E+00  0.50140612977E+00  0.15059243364E+01  0.14200000000E+01 0. -1.
         -4   -1    0    0    0  501 -0.00000000000E+00 -0.00000000000E+00 -0.98629310765E+02  0.98639532349E+02  0.14200000000E+01 0.  1.
       1023    2    1    2    0    0  0.00000000000E+00  0.00000000000E+00 -0.98127904635E+02  0.10014545668E+03  0.20000670653E+02 0.  0.
        -11    1    3    3    0    0 -0.26344698831E+00 -0.99967494445E+01 -0.48823683787E+02  0.49837300314E+02  0.51100000000E-03 0. -1.
         11    1    3    3    0    0  0.26344698831E+00  0.99967494445E+01 -0.49304220848E+02  0.50308156371E+02  0.51100000000E-03 0.  1.
<mgrwt>
<rscale>  0 0.20000671E+02</rscale>
<asrwt>0</asrwt>
<pdfrwt beam="1">  1        4 0.15519639E-03 0.20000671E+02</pdfrwt>
<pdfrwt beam="2">  1       -4 0.15251789E-01 0.20000671E+02</pdfrwt>
<totfact> 0.97964547E+05</totfact>
</mgrwt>
</event>
<event>
 5    1  0.1154861E-006  0.2000022E+02  0.7818608E-02  0.1745324E+00
          4   -1    0    0  501    0  0.00000000000E+00  0.00000000000E+00  0.16255564231E+02  0.16317468201E+02  0.14200000000E+01 0. -1.
         -4   -1    0    0    0  501 -0.00000000000E+00 -0.00000000000E+00 -0.59951862586E+01  0.61610598337E+01  0.14200000000E+01 0.  1.
       1023    2    1    2    0    0  0.00000000000E+00  0.00000000000E+00  0.10260377973E+02  0.22478528034E+02  0.20000221660E+02 0.  0.
        -11    1    3    3    0    0 -0.15312117725E+01  0.98821355362E+01  0.50945748854E+01  0.11223007875E+02  0.51100000000E-03 0.  1.
         11    1    3    3    0    0  0.15312117725E+01 -0.98821355362E+01  0.51658030873E+01  0.11255520159E+02  0.51100000000E-03 0. -1.
<mgrwt>
<rscale>  0 0.20000222E+02</rscale>
<asrwt>0</asrwt>
<pdfrwt beam="1">  1        4 0.25183774E-02 0.20000222E+02</pdfrwt>
<pdfrwt beam="2">  1       -4 0.93985770E-03 0.20000222E+02</pdfrwt>
<totfact> 0.12868247E+06</totfact>
</mgrwt>
</event>
<event>
 5    1  0.1184026E-006  0.2000158E+02  0.7818608E-02  0.1745297E+00
          4   -1    0    0  501    0  0.00000000000E+00  0.00000000000E+00  0.29215298577E+02  0.29249787537E+02  0.14200000000E+01 0. -1.
         -4   -1    0    0    0  501 -0.00000000000E+00 -0.00000000000E+00 -0.32379649367E+01  0.35356494355E+01  0.14200000000E+01 0.  1.
       1023    2    1    2    0    0  0.00000000000E+00  0.00000000000E+00  0.25977333640E+02  0.32785436972E+02  0.20001575298E+02 0.  0.
        -11    1    3    3    0    0  0.17622628954E+01  0.98434988759E+01  0.13194133912E+02  0.16555519037E+02  0.51100000000E-03 0. -1.
         11    1    3    3    0    0 -0.17622628954E+01 -0.98434988759E+01  0.12783199729E+02  0.16229917936E+02  0.51100000000E-03 0.  1.
<mgrwt>
<rscale>  0 0.20001575E+02</rscale>
<asrwt>0</asrwt>
<pdfrwt beam="1">  1        4 0.45202131E-02 0.20001575E+02</pdfrwt>
<pdfrwt beam="2">  1       -4 0.52370026E-03 0.20001575E+02</pdfrwt>
<totfact> 0.12310573E+06</totfact>
</mgrwt>
</event>
<event>
 5    1  0.1165329E-006  0.2000072E+02  0.7818608E-02  0.1745314E+00
          4   -1    0    0  501    0  0.00000000000E+00  0.00000000000E+00  0.33946032907E+01  0.36796374144E+01  0.14200000000E+01 0. -1.
         -4   -1    0    0    0  501 -0.00000000000E+00 -0.00000000000E+00 -0.27969858615E+02  0.28005881363E+02  0.14200000000E+01 0.  1.
       1023    2    1    2    0    0  0.00000000000E+00  0.00000000000E+00 -0.24575255324E+02  0.31685518778E+02  0.20000723136E+02 0.  0.
        -11    1    3    3    0    0  0.33745598630E+01  0.94137857010E+01 -0.12264358705E+02  0.15824712010E+02  0.51100000000E-03 0.  1.
         11    1    3    3    0    0 -0.33745598630E+01 -0.94137857010E+01 -0.12310896619E+02  0.15860806768E+02  0.51100000000E-03 0. -1.
<mgrwt>
<rscale>  0 0.20000723E+02</rscale>
<asrwt>0</asrwt>
<pdfrwt beam="1">  1        4 0.54694336E-03 0.20000723E+02</pdfrwt>
<pdfrwt beam="2">  1       -4 0.43277517E-02 0.20000723E+02</pdfrwt>
<totfact> 0.12367648E+06</totfact>
</mgrwt>
</event>
<event>
 5    1  0.1161299E-006  0.2000216E+02  0.7818608E-02  0.1745285E+00
         -4   -1    0    0    0  501 -0.00000000000E+00  0.00000000000E+00  0.41465967096E+02  0.41490273887E+02  0.14200000000E+01 0.  1.
          4   -1    0    0  501    0  0.00000000000E+00 -0.00000000000E+00 -0.21758816903E+01  0.25982419306E+01  0.14200000000E+01 0. -1.
       1023    2    1    2    0    0  0.00000000000E+00  0.00000000000E+00  0.39290085406E+02  0.44088515817E+02  0.20002160278E+02 0.  0.
        -11    1    3    3    0    0  0.73295483175E+01 -0.68028837530E+01  0.19957523086E+02  0.22322729087E+02  0.51100000000E-03 0.  1.
         11    1    3    3    0    0 -0.73295483175E+01  0.68028837530E+01  0.19332562319E+02  0.21765786730E+02  0.51100000000E-03 0. -1.
<mgrwt>
<rscale>  0 0.20002160E+02</rscale>
<asrwt>0</asrwt>
<pdfrwt beam="2">  1        4 0.36911008E-03 0.20002160E+02</pdfrwt>
<pdfrwt beam="1">  1       -4 0.64137377E-02 0.20002160E+02</pdfrwt>
<totfact> 0.11773732E+06</totfact>
</mgrwt>
</event>
<event>
 5    1  0.1199750E-006  0.2000081E+02  0.7818608E-02  0.1745312E+00
          4   -1    0    0  501    0  0.00000000000E+00  0.00000000000E+00  0.80739649547E+01  0.81978844887E+01  0.14200000000E+01 0.  1.
         -4   -1    0    0    0  501 -0.00000000000E+00 -0.00000000000E+00 -0.12126503570E+02  0.12209360706E+02  0.14200000000E+01 0. -1.
       1023    2    1    2    0    0  0.00000000000E+00  0.00000000000E+00 -0.40525386156E+01  0.20407245194E+02  0.20000814663E+02 0.  0.
        -11    1    3    3    0    0 -0.62642465281E+01 -0.77951627460E+01 -0.19722815787E+01  0.10192901534E+02  0.51100000000E-03 0. -1.
         11    1    3    3    0    0  0.62642465281E+01  0.77951627460E+01 -0.20802570368E+01  0.10214343660E+02  0.51100000000E-03 0.  1.
<mgrwt>
<rscale>  0 0.20000815E+02</rscale>
<asrwt>0</asrwt>
<pdfrwt beam="1">  1        4 0.12580543E-02 0.20000815E+02</pdfrwt>
<pdfrwt beam="2">  1       -4 0.18815218E-02 0.20000815E+02</pdfrwt>
<totfact> 0.12988739E+06</totfact>
</mgrwt>
</event>
<event>
 5    1  0.1178284E-006  0.2000138E+02  0.7818608E-02  0.1745301E+00
         -4   -1    0    0    0  501 -0.00000000000E+00  0.00000000000E+00  0.13287930273E+02  0.13363588251E+02  0.14200000000E+01 0.  1.
          4   -1    0    0  501    0  0.00000000000E+00 -0.00000000000E+00 -0.73615984731E+01  0.74973016532E+01  0.14200000000E+01 0. -1.
       1023    2    1    2    0    0  0.00000000000E+00  0.00000000000E+00  0.59263318004E+01  0.20860889905E+02  0.20001382927E+02 0.  0.
        -11    1    3    3    0    0  0.65394905285E+01 -0.75662979265E+01  0.29687635515E+01  0.10432035179E+02  0.51100000000E-03 0. -1.
         11    1    3    3    0    0 -0.65394905285E+01  0.75662979265E+01  0.29575682489E+01  0.10428854726E+02  0.51100000000E-03 0.  1.
<mgrwt>
<rscale>  0 0.20001383E+02</rscale>
<asrwt>0</asrwt>
<pdfrwt beam="2">  1        4 0.11488122E-02 0.20001383E+02</pdfrwt>
<pdfrwt beam="1">  1       -4 0.20605555E-02 0.20001383E+02</pdfrwt>
<totfact> 0.12961143E+06</totfact>
</mgrwt>
</event>
<event>
 5    1  0.1166858E-006  0.2000146E+02  0.7818608E-02  0.1745299E+00
         -4   -1    0    0    0  501 -0.00000000000E+00  0.00000000000E+00  0.30399832565E+01  0.33552791538E+01  0.14200000000E+01 0. -1.
          4   -1    0    0  501    0  0.00000000000E+00 -0.00000000000E+00 -0.30945348629E+02  0.30977911514E+02  0.14200000000E+01 0.  1.
       1023    2    1    2    0    0  0.00000000000E+00  0.00000000000E+00 -0.27905365373E+02  0.34333190668E+02  0.20001464068E+02 0.  0.
        -11    1    3    3    0    0  0.57822364599E+01  0.81596500367E+01 -0.13914540263E+02  0.17135593897E+02  0.51100000000E-03 0. -1.
         11    1    3    3    0    0 -0.57822364599E+01 -0.81596500367E+01 -0.13990825110E+02  0.17197596771E+02  0.51100000000E-03 0.  1.
<mgrwt>
<rscale>  0 0.20001464E+02</rscale>
<asrwt>0</asrwt>
<pdfrwt beam="2">  1        4 0.47875810E-02 0.20001464E+02</pdfrwt>
<pdfrwt beam="1">  1       -4 0.49444812E-03 0.20001464E+02</pdfrwt>
<totfact> 0.12233153E+06</totfact>
</mgrwt>
</event>
<event>
 5    1  0.1154861E-006  0.2000563E+02  0.7818608E-02  0.1745216E+00
          4   -1    0    0  501    0  0.00000000000E+00  0.00000000000E+00  0.37997588458E+01  0.40564229668E+01  0.14200000000E+01 0.  1.
         -4   -1    0    0    0  501 -0.00000000000E+00 -0.00000000000E+00 -0.25194682793E+02  0.25234667444E+02  0.14200000000E+01 0. -1.
       1023    2    1    2    0    0  0.00000000000E+00  0.00000000000E+00 -0.21394923947E+02  0.29291090411E+02  0.20005629377E+02 0.  0.
        -11    1    3    3    0    0 -0.74924032433E+01 -0.66267245838E+01 -0.10577470489E+02  0.14557900511E+02  0.51100000000E-03 0. -1.
         11    1    3    3    0    0  0.74924032433E+01  0.66267245838E+01 -0.10817453458E+02  0.14733189900E+02  0.51100000000E-03 0.  1.
<mgrwt>
<rscale>  0 0.20005629E+02</rscale>
<asrwt>0</asrwt>
<pdfrwt beam="1">  1        4 0.60739744E-03 0.20005629E+02</pdfrwt>
<pdfrwt beam="2">  1       -4 0.38989241E-02 0.20005629E+02</pdfrwt>
<totfact> 0.12485789E+06</totfact>
</mgrwt>
</event>
<event>
 5    1  0.1154861E-006  0.2000585E+02  0.7818608E-02  0.1745212E+00
         -4   -1    0    0    0  501 -0.00000000000E+00  0.00000000000E+00  0.31477155228E+01  0.34531888179E+01  0.14200000000E+01 0. -1.
          4   -1    0    0  501    0  0.00000000000E+00 -0.00000000000E+00 -0.29993566093E+02  0.30027161154E+02  0.14200000000E+01 0.  1.
       1023    2    1    2    0    0  0.00000000000E+00  0.00000000000E+00 -0.26845850570E+02  0.33480349972E+02  0.20005852679E+02 0.  0.
        -11    1    3    3    0    0 -0.48126780877E+01 -0.87676503424E+01 -0.13158464535E+02  0.16528120040E+02  0.51100000000E-03 0.  1.
         11    1    3    3    0    0  0.48126780877E+01  0.87676503424E+01 -0.13687386035E+02  0.16952229931E+02  0.51100000000E-03 0. -1.
<mgrwt>
<rscale>  0 0.20005853E+02</rscale>
<asrwt>0</asrwt>
<pdfrwt beam="2">  1        4 0.46404768E-02 0.20005853E+02</pdfrwt>
<pdfrwt beam="1">  1       -4 0.51034613E-03 0.20005853E+02</pdfrwt>
<totfact> 0.12270247E+06</totfact>
</mgrwt>
</event>
<event>
 5    1  0.1154861E-006  0.2000054E+02  0.7818608E-02  0.1745317E+00
         -4   -1    0    0    0  501 -0.00000000000E+00  0.00000000000E+00  0.10427442019E+03  0.10428408846E+03  0.14200000000E+01 0. -1.
          4   -1    0    0  501    0  0.00000000000E+00 -0.00000000000E+00 -0.41831181015E+00  0.14803326554E+01  0.14200000000E+01 0.  1.
       1023    2    1    2    0    0  0.00000000000E+00  0.00000000000E+00  0.10385610838E+03  0.10576442112E+03  0.20000538145E+02 0.  0.
        -11    1    3    3    0    0 -0.55092563399E+01 -0.83456826424E+01  0.52220436505E+02  0.53169317404E+02  0.51100000000E-03 0. -1.
         11    1    3    3    0    0  0.55092563399E+01  0.83456826424E+01  0.51635671876E+02  0.52595103713E+02  0.51100000000E-03 0.  1.
<mgrwt>
<rscale>  0 0.20000538E+02</rscale>
<asrwt>0</asrwt>
<pdfrwt beam="2">  1        4 0.14679319E-03 0.20000538E+02</pdfrwt>
<pdfrwt beam="1">  1       -4 0.16124667E-01 0.20000538E+02</pdfrwt>
<totfact> 0.96395756E+05</totfact>
</mgrwt>
</event>
<event>
 5    1  0.1154861E-006  0.2000095E+02  0.7818608E-02  0.1745309E+00
         -4   -1    0    0    0  501 -0.00000000000E+00  0.00000000000E+00  0.15165877005E+01  0.20776039693E+01  0.14200000000E+01 0. -1.
          4   -1    0    0  501    0  0.00000000000E+00 -0.00000000000E+00 -0.55079035440E+02  0.55097337005E+02  0.14200000000E+01 0.  1.
       1023    2    1    2    0    0  0.00000000000E+00  0.00000000000E+00 -0.53562447739E+02  0.57174940974E+02  0.20000951665E+02 0.  0.
        -11    1    3    3    0    0  0.68079438175E+01  0.73253930571E+01 -0.26797930829E+02  0.28603121848E+02  0.51100000000E-03 0.  1.
         11    1    3    3    0    0 -0.68079438175E+01 -0.73253930571E+01 -0.26764516910E+02  0.28571819126E+02  0.51100000000E-03 0. -1.
<mgrwt>
<rscale>  0 0.20000952E+02</rscale>
<asrwt>0</asrwt>
<pdfrwt beam="2">  1        4 0.85182594E-02 0.20000952E+02</pdfrwt>
<pdfrwt beam="1">  1       -4 0.27788414E-03 0.20000952E+02</pdfrwt>
<totfact> 0.11227477E+06</totfact>
</mgrwt>
</event>
<event>
 5    1  0.1154861E-006  0.2000056E+02  0.7818608E-02  0.1745317E+00
          4   -1    0    0  501    0  0.00000000000E+00  0.00000000000E+00  0.60366232304E+02  0.60382931384E+02  0.14200000000E+01 0. -1.
         -4   -1    0    0    0  501 -0.00000000000E+00 -0.00000000000E+00 -0.13322390439E+01  0.19471160392E+01  0.14200000000E+01 0.  1.
       1023    2    1    2    0    0  0.00000000000E+00  0.00000000000E+00  0.59033993260E+02  0.62330047423E+02  0.20000561282E+02 0.  0.
        -11    1    3    3    0    0  0.29902197775E+01  0.95425535087E+01  0.29323105125E+02  0.30981385318E+02  0.51100000000E-03 0. -1.
         11    1    3    3    0    0 -0.29902197775E+01 -0.95425535087E+01  0.29710888135E+02  0.31348662106E+02  0.51100000000E-03 0.  1.
<mgrwt>
<rscale>  0 0.20000561E+02</rscale>
<asrwt>0</asrwt>
<pdfrwt beam="1">  1        4 0.93356940E-02 0.20000561E+02</pdfrwt>
<pdfrwt beam="2">  1       -4 0.25354267E-03 0.20000561E+02</pdfrwt>
<totfact> 0.11029672E+06</totfact>
</mgrwt>
</event>
<event>
 5    1  0.1154861E-006  0.2000055E+02  0.7818608E-02  0.1745317E+00
         -4   -1    0    0    0  501 -0.00000000000E+00  0.00000000000E+00  0.27053863521E+02  0.27091104286E+02  0.14200000000E+01 0. -1.
          4   -1    0    0  501    0  0.00000000000E+00 -0.00000000000E+00 -0.35187983908E+01  0.37945147404E+01  0.14200000000E+01 0.  1.
       1023    2    1    2    0    0  0.00000000000E+00  0.00000000000E+00  0.23535065130E+02  0.30885619026E+02  0.20000554291E+02 0.  0.
        -11    1    3    3    0    0 -0.91515772122E+01 -0.40315968565E+01  0.11798572861E+02  0.15466462443E+02  0.51100000000E-03 0. -1.
         11    1    3    3    0    0  0.91515772122E+01  0.40315968565E+01  0.11736492270E+02  0.15419156583E+02  0.51100000000E-03 0.  1.
<mgrwt>
<rscale>  0 0.20000554E+02</rscale>
<asrwt>0</asrwt>
<pdfrwt beam="2">  1        4 0.56542723E-03 0.20000554E+02</pdfrwt>
<pdfrwt beam="1">  1       -4 0.41862064E-02 0.20000554E+02</pdfrwt>
<totfact> 0.12409041E+06</totfact>
</mgrwt>
</event>
<event>
 5    1  0.1189103E-006  0.2000136E+02  0.7818608E-02  0.1745301E+00
         -4   -1    0    0    0  501 -0.00000000000E+00  0.00000000000E+00  0.53541433044E+01  0.55392463859E+01  0.14200000000E+01 0.  1.
          4   -1    0    0  501    0  0.00000000000E+00 -0.00000000000E+00 -0.18148945804E+02  0.18204412481E+02  0.14200000000E+01 0. -1.
       1023    2    1    2    0    0  0.00000000000E+00  0.00000000000E+00 -0.12794802499E+02  0.23743658867E+02  0.20001359089E+02 0.  0.
        -11    1    3    3    0    0 -0.88129185673E+01 -0.47261723264E+01 -0.62825982363E+01  0.11809965258E+02  0.51100000000E-03 0.  1.
         11    1    3    3    0    0  0.88129185673E+01  0.47261723264E+01 -0.65122042630E+01  0.11933693609E+02  0.51100000000E-03 0. -1.
<mgrwt>
<rscale>  0 0.20001359E+02</rscale>
<asrwt>0</asrwt>
<pdfrwt beam="2">  1        4 0.28106508E-02 0.20001359E+02</pdfrwt>
<pdfrwt beam="1">  1       -4 0.84221973E-03 0.20001359E+02</pdfrwt>
<totfact> 0.12794475E+06</totfact>
</mgrwt>
</event>
<event>
 5    1  0.1154861E-006  0.2000277E+02  0.7818608E-02  0.1745273E+00
          4   -1    0    0  501    0  0.00000000000E+00  0.00000000000E+00  0.24291191638E+02  0.24332660997E+02  0.14200000000E+01 0. -1.
         -4   -1    0    0    0  501 -0.00000000000E+00 -0.00000000000E+00 -0.39489969180E+01  0.41965434179E+01  0.14200000000E+01 0.  1.
       1023    2    1    2    0    0  0.00000000000E+00  0.00000000000E+00  0.20342194720E+02  0.28529204415E+02  0.20002765272E+02 0.  0.
        -11    1    3    3    0    0 -0.98942739709E+01  0.14578045447E+01  0.10279745158E+02  0.14342071408E+02  0.51100000000E-03 0. -1.
         11    1    3    3    0    0  0.98942739709E+01 -0.14578045447E+01  0.10062449561E+02  0.14187133006E+02  0.51100000000E-03 0.  1.
<mgrwt>
<rscale>  0 0.20002765E+02</rscale>
<asrwt>0</asrwt>
<pdfrwt beam="1">  1        4 0.37593384E-02 0.20002765E+02</pdfrwt>
<pdfrwt beam="2">  1       -4 0.62976997E-03 0.20002765E+02</pdfrwt>
<totfact> 0.12529763E+06</totfact>
</mgrwt>
</event>
<event>
 4    1  0.1154861E-006  0.2001961E+02  0.7818608E-02  0.1744938E+00
         -4   -1    0    0    0  501 -0.00000000000E+00  0.00000000000E+00  0.62358713419E+01  0.63955055620E+01  0.14200000000E+01 0. -1.
          4   -1    0    0  501    0  0.00000000000E+00 -0.00000000000E+00 -0.15672511272E+02  0.15736708982E+02  0.14200000000E+01 0.  1.
        -11    1    1    2    0    0 -0.25982172713E+01 -0.96656328199E+01 -0.48785099999E+01  0.11134408421E+02  0.51100000000E-03 0.  1.
         11    1    1    2    0    0  0.25982172713E+01  0.96656328199E+01 -0.45581299303E+01  0.10997806123E+02  0.51100000000E-03 0. -1.
<mgrwt>
<rscale>  0 0.20019609E+02</rscale>
<asrwt>0</asrwt>
<pdfrwt beam="2">  1        4 0.24283734E-02 0.20019609E+02</pdfrwt>
<pdfrwt beam="1">  1       -4 0.97658267E-03 0.20019609E+02</pdfrwt>
<totfact> 0.12862822E+06</totfact>
</mgrwt>
</event>
<event>
 5    1  0.1154861E-006  0.2000062E+02  0.7818608E-02  0.1745316E+00
          4   -1    0    0  501    0  0.00000000000E+00  0.00000000000E+00  0.92650376483E+02  0.92661257613E+02  0.14200000000E+01 0.  1.
         -4   -1    0    0    0  501 -0.00000000000E+00 -0.00000000000E+00 -0.59660413327E+00  0.15402391022E+01  0.14200000000E+01 0. -1.
       1023    2    1    2    0    0  0.00000000000E+00  0.00000000000E+00  0.92053772350E+02  0.94201496716E+02  0.20000624480E+02 0.  0.
        -11    1    3    3    0    0  0.50212081467E+01  0.86482593145E+01  0.46198279131E+02  0.47268233681E+02  0.51100000000E-03 0. -1.
         11    1    3    3    0    0 -0.50212081467E+01 -0.86482593145E+01  0.45855493219E+02  0.46933263035E+02  0.51100000000E-03 0.  1.
<mgrwt>
<rscale>  0 0.20000624E+02</rscale>
<asrwt>0</asrwt>
<pdfrwt beam="1">  1        4 0.14327326E-01 0.20000624E+02</pdfrwt>
<pdfrwt beam="2">  1       -4 0.16520959E-03 0.20000624E+02</pdfrwt>
<totfact> 0.99689447E+05</totfact>
</mgrwt>
</event>
<event>
 4    1  0.1154861E-006  0.2003274E+02  0.7818608E-02  0.1744678E+00
          4   -1    0    0  501    0  0.00000000000E+00  0.00000000000E+00  0.54923120886E+02  0.54941474387E+02  0.14200000000E+01 0. -1.
         -4   -1    0    0    0  501 -0.00000000000E+00 -0.00000000000E+00 -0.15291686123E+01  0.20868053682E+01  0.14200000000E+01 0.  1.
        -11    1    1    2    0    0  0.23440407895E+01  0.97291639745E+01  0.27892880607E+02  0.29633831134E+02  0.51100000000E-03 0.  1.
         11    1    1    2    0    0 -0.23440407895E+01 -0.97291639745E+01  0.25501071667E+02  0.27394448622E+02  0.51100000000E-03 0. -1.
<mgrwt>
<rscale>  0 0.20032737E+02</rscale>
<asrwt>0</asrwt>
<pdfrwt beam="1">  1        4 0.84940164E-02 0.20032737E+02</pdfrwt>
<pdfrwt beam="2">  1       -4 0.27956370E-03 0.20032737E+02</pdfrwt>
<totfact> 0.11197381E+06</totfact>
</mgrwt>
</event>
<event>
 5    1  0.1154861E-006  0.2000049E+02  0.7818608E-02  0.1745318E+00
          4   -1    0    0  501    0  0.00000000000E+00  0.00000000000E+00  0.30950262837E+01  0.34052294632E+01  0.14200000000E+01 0. -1.
         -4   -1    0    0    0  501 -0.00000000000E+00 -0.00000000000E+00 -0.30441990741E+02  0.30475091472E+02  0.14200000000E+01 0.  1.
       1023    2    1    2    0    0  0.00000000000E+00  0.00000000000E+00 -0.27346964457E+02  0.33880320936E+02  0.20000492036E+02 0.  0.
        -11    1    3    3    0    0  0.99149411556E+01  0.13033300727E+01 -0.13649963138E+02  0.16921176712E+02  0.51100000000E-03 0. -1.
         11    1    3    3    0    0 -0.99149411556E+01 -0.13033300727E+01 -0.13697001319E+02  0.16959144224E+02  0.51100000000E-03 0.  1.
<mgrwt>
<rscale>  0 0.20000492E+02</rscale>
<asrwt>0</asrwt>
<pdfrwt beam="1">  1        4 0.50256590E-03 0.20000492E+02</pdfrwt>
<pdfrwt beam="2">  1       -4 0.47097910E-02 0.20000492E+02</pdfrwt>
<totfact> 0.12256906E+06</totfact>
</mgrwt>
</event>
<event>
 5    1  0.1154861E-006  0.2000013E+02  0.7818608E-02  0.1745326E+00
          4   -1    0    0  501    0  0.00000000000E+00  0.00000000000E+00  0.56796399692E+01  0.58544607078E+01  0.14200000000E+01 0.  1.
         -4   -1    0    0    0  501 -0.00000000000E+00 -0.00000000000E+00 -0.17135472405E+02  0.17194208750E+02  0.14200000000E+01 0. -1.
       1023    2    1    2    0    0  0.00000000000E+00  0.00000000000E+00 -0.11455832436E+02  0.23048669458E+02  0.20000126674E+02 0.  0.
        -11    1    3    3    0    0 -0.59018037075E+00  0.99825958651E+01 -0.57591256301E+01  0.11539846678E+02  0.51100000000E-03 0.  1.
         11    1    3    3    0    0  0.59018037075E+00 -0.99825958651E+01 -0.56967068055E+01  0.11508822779E+02  0.51100000000E-03 0. -1.
<mgrwt>
<rscale>  0 0.20000127E+02</rscale>
<asrwt>0</asrwt>
<pdfrwt beam="1">  1        4 0.89175670E-03 0.20000127E+02</pdfrwt>
<pdfrwt beam="2">  1       -4 0.26541924E-02 0.20000127E+02</pdfrwt>
<totfact> 0.12835626E+06</totfact>
</mgrwt>
</event>
<event>
 5    1  0.1154861E-006  0.2000311E+02  0.7818608E-02  0.1745266E+00
         -4   -1    0    0    0  501 -0.00000000000E+00  0.00000000000E+00  0.55375966854E+02  0.55394170316E+02  0.14200000000E+01 0.  1.
          4   -1    0    0  501    0  0.00000000000E+00 -0.00000000000E+00 -0.15058947646E+01  0.20698113542E+01  0.14200000000E+01 0. -1.
       1023    2    1    2    0    0  0.00000000000E+00  0.00000000000E+00  0.53870072089E+02  0.57463981670E+02  0.20003112820E+02 0.  0.
        -11    1    3    3    0    0 -0.62278343699E+01  0.78259317574E+01  0.26931455218E+02  0.28728633960E+02  0.51100000000E-03 0. -1.
         11    1    3    3    0    0  0.62278343699E+01 -0.78259317574E+01  0.26938616871E+02  0.28735347710E+02  0.51100000000E-03 0.  1.
<mgrwt>
<rscale>  0 0.20003113E+02</rscale>
<asrwt>0</asrwt>
<pdfrwt beam="2">  1        4 0.27645459E-03 0.20003113E+02</pdfrwt>
<pdfrwt beam="1">  1       -4 0.85641579E-02 0.20003113E+02</pdfrwt>
<totfact> 0.11213690E+06</totfact>
</mgrwt>
</event>
<event>
 5    1  0.1154861E-006  0.2000008E+02  0.7818608E-02  0.1745326E+00
         -4   -1    0    0    0  501 -0.00000000000E+00  0.00000000000E+00  0.17200146537E+01  0.22304372685E+01  0.14200000000E+01 0. -1.
          4   -1    0    0  501    0  0.00000000000E+00 -0.00000000000E+00 -0.50105752864E+02  0.50125870267E+02  0.14200000000E+01 0.  1.
       1023    2    1    2    0    0  0.00000000000E+00  0.00000000000E+00 -0.48385738210E+02  0.52356307536E+02  0.20000081916E+02 0.  0.
        -11    1    3    3    0    0  0.81638852342E+01  0.57750560666E+01 -0.24252805404E+02  0.26233544650E+02  0.51100000000E-03 0.  1.
         11    1    3    3    0    0 -0.81638852342E+01 -0.57750560666E+01 -0.24132932806E+02  0.26122762886E+02  0.51100000000E-03 0. -1.
<mgrwt>
<rscale>  0 0.20000082E+02</rscale>
<asrwt>0</asrwt>
<pdfrwt beam="2">  1        4 0.77493871E-02 0.20000082E+02</pdfrwt>
<pdfrwt beam="1">  1       -4 0.30542845E-03 0.20000082E+02</pdfrwt>
<totfact> 0.11422152E+06</totfact>
</mgrwt>
</event>
<event>
 5    1  0.1154861E-006  0.2000045E+02  0.7818608E-02  0.1745319E+00
          4   -1    0    0  501    0  0.00000000000E+00  0.00000000000E+00  0.36496967871E+02  0.36524581638E+02  0.14200000000E+01 0. -1.
         -4   -1    0    0    0  501 -0.00000000000E+00 -0.00000000000E+00 -0.25254341410E+01  0.28972776188E+01  0.14200000000E+01 0.  1.
       1023    2    1    2    0    0  0.00000000000E+00  0.00000000000E+00  0.33971533730E+02  0.39421859256E+02  0.20000447076E+02 0.  0.
        -11    1    3    3    0    0  0.70307896503E+01 -0.71113157352E+01  0.17065975613E+02  0.19780049001E+02  0.51100000000E-03 0.  1.
         11    1    3    3    0    0 -0.70307896503E+01  0.71113157352E+01  0.16905558118E+02  0.19641810256E+02  0.51100000000E-03 0. -1.
<mgrwt>
<rscale>  0 0.20000447E+02</rscale>
<asrwt>0</asrwt>
<pdfrwt beam="1">  1        4 0.56456448E-02 0.20000447E+02</pdfrwt>
<pdfrwt beam="2">  1       -4 0.41925587E-03 0.20000447E+02</pdfrwt>
<totfact> 0.11989061E+06</totfact>
</mgrwt>
</event>
<event>
 4    1  0.1154861E-006  0.2004612E+02  0.7818608E-02  0.1744412E+00
         -4   -1    0    0    0  501 -0.00000000000E+00  0.00000000000E+00  0.68501069813E+01  0.69957391071E+01  0.14200000000E+01 0. -1.
          4   -1    0    0  501    0  0.00000000000E+00 -0.00000000000E+00 -0.14330370664E+02  0.14400552884E+02  0.14200000000E+01 0.  1.
        -11    1    1    2    0    0  0.17936029324E+01  0.98608523911E+01 -0.38374890691E+01  0.10732182629E+02  0.51100000000E-03 0. -1.
         11    1    1    2    0    0 -0.17936029324E+01 -0.98608523911E+01 -0.36427746140E+01  0.10664109363E+02  0.51100000000E-03 0.  1.
<mgrwt>
<rscale>  0 0.20046121E+02</rscale>
<asrwt>0</asrwt>
<pdfrwt beam="2">  1        4 0.22212735E-02 0.20046121E+02</pdfrwt>
<pdfrwt beam="1">  1       -4 0.10704637E-02 0.20046121E+02</pdfrwt>
<totfact> 0.12870801E+06</totfact>
</mgrwt>
</event>
<event>
 4    1  0.1154861E-006  0.2008127E+02  0.7818608E-02  0.1743717E+00
          4   -1    0    0  501    0  0.00000000000E+00  0.00000000000E+00  0.37929937178E+02  0.37956508458E+02  0.14200000000E+01 0. -1.
         -4   -1    0    0    0  501 -0.00000000000E+00 -0.00000000000E+00 -0.24386913649E+01  0.28219878762E+01  0.14200000000E+01 0.  1.
        -11    1    1    2    0    0 -0.95582318191E-01  0.10040175448E+02  0.17759868200E+02  0.20401646447E+02  0.51100000000E-03 0.  1.
         11    1    1    2    0    0  0.95582318191E-01 -0.10040175448E+02  0.17731377612E+02  0.20376849887E+02  0.51100000000E-03 0. -1.
<mgrwt>
<rscale>  0 0.20081266E+02</rscale>
<asrwt>0</asrwt>
<pdfrwt beam="1">  1        4 0.58669031E-02 0.20081266E+02</pdfrwt>
<pdfrwt beam="2">  1       -4 0.40671159E-03 0.20081266E+02</pdfrwt>
<totfact> 0.11829011E+06</totfact>
</mgrwt>
</event>
<event>
 5    1  0.1154861E-006  0.2000347E+02  0.7818608E-02  0.1745259E+00
          4   -1    0    0  501    0  0.00000000000E+00  0.00000000000E+00  0.15881524564E+02  0.15944880761E+02  0.14200000000E+01 0.  1.
         -4   -1    0    0    0  501 -0.00000000000E+00 -0.00000000000E+00 -0.61417457133E+01  0.63037639872E+01  0.14200000000E+01 0. -1.
       1023    2    1    2    0    0  0.00000000000E+00  0.00000000000E+00  0.97397788504E+01  0.22248644748E+02  0.20003472225E+02 0.  0.
        -11    1    3    3    0    0 -0.99748788999E+01  0.72963003680E+00  0.47981871292E+01  0.11092933293E+02  0.51100000000E-03 0. -1.
         11    1    3    3    0    0  0.99748788999E+01 -0.72963003680E+00  0.49415917212E+01  0.11155711455E+02  0.51100000000E-03 0.  1.
<mgrwt>
<rscale>  0 0.20003472E+02</rscale>
<asrwt>0</asrwt>
<pdfrwt beam="1">  1        4 0.24606480E-02 0.20003472E+02</pdfrwt>
<pdfrwt beam="2">  1       -4 0.96222046E-03 0.20003472E+02</pdfrwt>
<totfact> 0.12877258E+06</totfact>
</mgrwt>
</event>
<event>
 5    1  0.1176727E-006  0.2000070E+02  0.7818608E-02  0.1745314E+00
          4   -1    0    0  501    0  0.00000000000E+00  0.00000000000E+00  0.22120123506E+01  0.26285734989E+01  0.14200000000E+01 0. -1.
         -4   -1    0    0    0  501 -0.00000000000E+00 -0.00000000000E+00 -0.40890249336E+02  0.40914898152E+02  0.14200000000E+01 0.  1.
       1023    2    1    2    0    0  0.00000000000E+00  0.00000000000E+00 -0.38678236986E+02  0.43543471651E+02  0.20000697665E+02 0.  0.
        -11    1    3    3    0    0  0.97996731848E+01  0.19922248225E+01 -0.19194341704E+02  0.21643135355E+02  0.51100000000E-03 0.  1.
         11    1    3    3    0    0 -0.97996731848E+01 -0.19922248225E+01 -0.19483895282E+02  0.21900336296E+02  0.51100000000E-03 0. -1.
<mgrwt>
<rscale>  0 0.20000698E+02</rscale>
<asrwt>0</asrwt>
<pdfrwt beam="1">  1        4 0.37424885E-03 0.20000698E+02</pdfrwt>
<pdfrwt beam="2">  1       -4 0.63247463E-02 0.20000698E+02</pdfrwt>
<totfact> 0.11799869E+06</totfact>
</mgrwt>
</event>
<event>
 5    1  0.1175307E-006  0.2000144E+02  0.7818608E-02  0.1745300E+00
         -4   -1    0    0    0  501 -0.00000000000E+00  0.00000000000E+00  0.30669914888E+01  0.33797687484E+01  0.14200000000E+01 0. -1.
          4   -1    0    0  501    0  0.00000000000E+00 -0.00000000000E+00 -0.30697803028E+02  0.30730628219E+02  0.14200000000E+01 0.  1.
       1023    2    1    2    0    0  0.00000000000E+00  0.00000000000E+00 -0.27630811539E+02  0.34110396968E+02  0.20001435823E+02 0.  0.
        -11    1    3    3    0    0 -0.54868903583E+01  0.83611195403E+01 -0.13829947849E+02  0.17066978161E+02  0.51100000000E-03 0. -1.
         11    1    3    3    0    0  0.54868903583E+01 -0.83611195403E+01 -0.13800863690E+02  0.17043418807E+02  0.51100000000E-03 0.  1.
<mgrwt>
<rscale>  0 0.20001436E+02</rscale>
<asrwt>0</asrwt>
<pdfrwt beam="2">  1        4 0.47493235E-02 0.20001436E+02</pdfrwt>
<pdfrwt beam="1">  1       -4 0.49842967E-03 0.20001436E+02</pdfrwt>
<totfact> 0.12244264E+06</totfact>
</mgrwt>
</event>
<event>
 5    1  0.1154861E-006  0.2000071E+02  0.7818608E-02  0.1745314E+00
          4   -1    0    0  501    0  0.00000000000E+00  0.00000000000E+00  0.92708585473E+00  0.16958443861E+01  0.14200000000E+01 0. -1.
         -4   -1    0    0    0  501 -0.00000000000E+00 -0.00000000000E+00 -0.75478592649E+02  0.75491948897E+02  0.14200000000E+01 0.  1.
       1023    2    1    2    0    0  0.00000000000E+00  0.00000000000E+00 -0.74551506795E+02  0.77187793283E+02  0.20000706653E+02 0.  0.
        -11    1    3    3    0    0  0.69942955403E+01  0.71474435294E+01 -0.37394533541E+02  0.38708619946E+02  0.51100000000E-03 0.  1.
         11    1    3    3    0    0 -0.69942955403E+01 -0.71474435294E+01 -0.37156973253E+02  0.38479173337E+02  0.51100000000E-03 0. -1.
<mgrwt>
<rscale>  0 0.20000707E+02</rscale>
<asrwt>0</asrwt>
<pdfrwt beam="1">  1        4 0.20279133E-03 0.20000707E+02</pdfrwt>
<pdfrwt beam="2">  1       -4 0.11672250E-01 0.20000707E+02</pdfrwt>
<totfact> 0.10503314E+06</totfact>
</mgrwt>
</event>
<event>
 5    1  0.1154861E-006  0.2000155E+02  0.7818608E-02  0.1745297E+00
         -4   -1    0    0    0  501 -0.00000000000E+00  0.00000000000E+00  0.28105022289E+02  0.28140872017E+02  0.14200000000E+01 0.  1.
          4   -1    0    0  501    0  0.00000000000E+00 -0.00000000000E+00 -0.33772319134E+01  0.36636178017E+01  0.14200000000E+01 0. -1.
       1023    2    1    2    0    0  0.00000000000E+00  0.00000000000E+00  0.24727790376E+02  0.31804489819E+02  0.20001548834E+02 0.  0.
        -11    1    3    3    0    0  0.18629533991E+01  0.98250961139E+01  0.12186974250E+02  0.15764689995E+02  0.51100000000E-03 0.  1.
         11    1    3    3    0    0 -0.18629533991E+01 -0.98250961139E+01  0.12540816126E+02  0.16039799824E+02  0.51100000000E-03 0. -1.
<mgrwt>
<rscale>  0 0.20001549E+02</rscale>
<asrwt>0</asrwt>
<pdfrwt beam="2">  1        4 0.54436149E-03 0.20001549E+02</pdfrwt>
<pdfrwt beam="1">  1       -4 0.43486370E-02 0.20001549E+02</pdfrwt>
<totfact> 0.12360517E+06</totfact>
</mgrwt>
</event>
<event>
 5    1  0.1154861E-006  0.2000061E+02  0.7818608E-02  0.1745316E+00
         -4   -1    0    0    0  501 -0.00000000000E+00  0.00000000000E+00  0.28252266723E+02  0.28287929846E+02  0.14200000000E+01 0.  1.
          4   -1    0    0  501    0  0.00000000000E+00 -0.00000000000E+00 -0.33578122789E+01  0.36457239748E+01  0.14200000000E+01 0. -1.
       1023    2    1    2    0    0  0.00000000000E+00  0.00000000000E+00  0.24894454444E+02  0.31933653821E+02  0.20000609598E+02 0.  0.
        -11    1    3    3    0    0  0.15354876179E-01  0.10000162122E+02  0.12365539885E+02  0.15903146077E+02  0.51100000000E-03 0.  1.
         11    1    3    3    0    0 -0.15354876179E-01 -0.10000162122E+02  0.12528914559E+02  0.16030507744E+02  0.51100000000E-03 0. -1.
<mgrwt>
<rscale>  0 0.20000610E+02</rscale>
<asrwt>0</asrwt>
<pdfrwt beam="2">  1        4 0.54147687E-03 0.20000610E+02</pdfrwt>
<pdfrwt beam="1">  1       -4 0.43713930E-02 0.20000610E+02</pdfrwt>
<totfact> 0.12355089E+06</totfact>
</mgrwt>
</event>
<event>
 5    1  0.1154861E-006  0.2000207E+02  0.7818608E-02  0.1745287E+00
         -4   -1    0    0    0  501 -0.00000000000E+00  0.00000000000E+00  0.25572979558E+02  0.25612373640E+02  0.14200000000E+01 0.  1.
          4   -1    0    0  501    0  0.00000000000E+00 -0.00000000000E+00 -0.37383810526E+01  0.39989864834E+01  0.14200000000E+01 0. -1.
       1023    2    1    2    0    0  0.00000000000E+00  0.00000000000E+00  0.21834598505E+02  0.29611360123E+02  0.20002073804E+02 0.  0.
        -11    1    3    3    0    0  0.27910585656E+01 -0.96034641002E+01  0.10821263636E+02  0.14734866052E+02  0.51100000000E-03 0. -1.
         11    1    3    3    0    0 -0.27910585656E+01  0.96034641002E+01  0.11013334869E+02  0.14876494071E+02  0.51100000000E-03 0.  1.
<mgrwt>
<rscale>  0 0.20002074E+02</rscale>
<asrwt>0</asrwt>
<pdfrwt beam="2">  1        4 0.59821244E-03 0.20002074E+02</pdfrwt>
<pdfrwt beam="1">  1       -4 0.39573814E-02 0.20002074E+02</pdfrwt>
<totfact> 0.12473460E+06</totfact>
</mgrwt>
</event>
<event>
 4    1  0.1154861E-006  0.2007542E+02  0.7818608E-02  0.1743832E+00
          4   -1    0    0  501    0  0.00000000000E+00  0.00000000000E+00  0.27655345670E+01  0.31087909935E+01  0.14200000000E+01 0. -1.
         -4   -1    0    0    0  501 -0.00000000000E+00 -0.00000000000E+00 -0.33944746627E+02  0.33974434853E+02  0.14200000000E+01 0.  1.
        -11    1    1    2    0    0 -0.98725723014E+01 -0.16460958011E+01 -0.16994298684E+02  0.19722664709E+02  0.51100000000E-03 0. -1.
         11    1    1    2    0    0  0.98725723014E+01  0.16460958011E+01 -0.14184913376E+02  0.17360561137E+02  0.51100000000E-03 0.  1.
<mgrwt>
<rscale>  0 0.20075417E+02</rscale>
<asrwt>0</asrwt>
<pdfrwt beam="1">  1        4 0.45415493E-03 0.20075417E+02</pdfrwt>
<pdfrwt beam="2">  1       -4 0.52509565E-02 0.20075417E+02</pdfrwt>
<totfact> 0.12008615E+06</totfact>
</mgrwt>
</event>
<event>
 5    1  0.1154861E-006  0.2000043E+02  0.7818608E-02  0.1745320E+00
          4   -1    0    0  501    0  0.00000000000E+00  0.00000000000E+00  0.90984882658E+01  0.92086312079E+01  0.14200000000E+01 0. -1.
         -4   -1    0    0    0  501 -0.00000000000E+00 -0.00000000000E+00 -0.10768140794E+02  0.10861365299E+02  0.14200000000E+01 0.  1.
       1023    2    1    2    0    0  0.00000000000E+00  0.00000000000E+00 -0.16696525280E+01  0.20069996507E+02  0.20000425501E+02 0.  0.
        -11    1    3    3    0    0 -0.93723814544E+01  0.34874363714E+01 -0.81220409256E+00  0.10033116282E+02  0.51100000000E-03 0.  1.
         11    1    3    3    0    0  0.93723814544E+01 -0.34874363714E+01 -0.85744843539E+00  0.10036880225E+02  0.51100000000E-03 0. -1.
<mgrwt>
<rscale>  0 0.20000426E+02</rscale>
<asrwt>0</asrwt>
<pdfrwt beam="1">  1        4 0.14154111E-02 0.20000426E+02</pdfrwt>
<pdfrwt beam="2">  1       -4 0.16722807E-02 0.20000426E+02</pdfrwt>
<totfact> 0.13009326E+06</totfact>
</mgrwt>
</event>
<event>
 5    1  0.1154861E-006  0.2000031E+02  0.7818608E-02  0.1745322E+00
         -4   -1    0    0    0  501 -0.00000000000E+00  0.00000000000E+00  0.21975762217E+02  0.22021592246E+02  0.14200000000E+01 0.  1.
          4   -1    0    0  501    0  0.00000000000E+00 -0.00000000000E+00 -0.43878989563E+01  0.46119472298E+01  0.14200000000E+01 0. -1.
       1023    2    1    2    0    0  0.00000000000E+00  0.00000000000E+00  0.17587863261E+02  0.26633539475E+02  0.20000312270E+02 0.  0.
        -11    1    3    3    0    0  0.44350457780E+01  0.89628896859E+01  0.87806224961E+01  0.13307980848E+02  0.51100000000E-03 0.  1.
         11    1    3    3    0    0 -0.44350457780E+01 -0.89628896859E+01  0.88072407650E+01  0.13325558627E+02  0.51100000000E-03 0. -1.
<mgrwt>
<rscale>  0 0.20000312E+02</rscale>
<asrwt>0</asrwt>
<pdfrwt beam="2">  1        4 0.69582126E-03 0.20000312E+02</pdfrwt>
<pdfrwt beam="1">  1       -4 0.34016463E-02 0.20000312E+02</pdfrwt>
<totfact> 0.12635043E+06</totfact>
</mgrwt>
</event>
<event>
 5    1  0.1183773E-006  0.2000214E+02  0.7818608E-02  0.1745286E+00
          4   -1    0    0  501    0  0.00000000000E+00  0.00000000000E+00  0.16044449560E+02  0.16107164918E+02  0.14200000000E+01 0.  1.
         -4   -1    0    0    0  501 -0.00000000000E+00 -0.00000000000E+00 -0.60771353852E+01  0.62408312339E+01  0.14200000000E+01 0. -1.
       1023    2    1    2    0    0  0.00000000000E+00  0.00000000000E+00  0.99673141751E+01  0.22347996152E+02  0.20002139389E+02 0.  0.
        -11    1    3    3    0    0  0.56966744476E+01  0.82200235547E+01  0.49584804992E+01  0.11162769196E+02  0.51100000000E-03 0. -1.
         11    1    3    3    0    0 -0.56966744476E+01 -0.82200235547E+01  0.50088336760E+01  0.11185226956E+02  0.51100000000E-03 0.  1.
<mgrwt>
<rscale>  0 0.20002139E+02</rscale>
<asrwt>0</asrwt>
<pdfrwt beam="1">  1        4 0.24857931E-02 0.20002139E+02</pdfrwt>
<pdfrwt beam="2">  1       -4 0.95236016E-03 0.20002139E+02</pdfrwt>
<totfact> 0.12873267E+06</totfact>
</mgrwt>
</event>
<event>
 5    1  0.1159206E-006  0.2000113E+02  0.7818608E-02  0.1745306E+00
         -4   -1    0    0    0  501 -0.00000000000E+00  0.00000000000E+00  0.18960663795E+01  0.23688536712E+01  0.14200000000E+01 0. -1.
          4   -1    0    0  501    0  0.00000000000E+00 -0.00000000000E+00 -0.46414643730E+02  0.46436360242E+02  0.14200000000E+01 0.  1.
       1023    2    1    2    0    0  0.00000000000E+00  0.00000000000E+00 -0.44518577350E+02  0.48805213914E+02  0.20001129365E+02 0.  0.
        -11    1    3    3    0    0 -0.49999613845E+01  0.86608811467E+01 -0.22189515672E+02  0.24338962223E+02  0.51100000000E-03 0. -1.
         11    1    3    3    0    0  0.49999613845E+01 -0.86608811467E+01 -0.22329061679E+02  0.24466251691E+02  0.51100000000E-03 0.  1.
<mgrwt>
<rscale>  0 0.20001129E+02</rscale>
<asrwt>0</asrwt>
<pdfrwt beam="2">  1        4 0.71787524E-02 0.20001129E+02</pdfrwt>
<pdfrwt beam="1">  1       -4 0.32974131E-03 0.20001129E+02</pdfrwt>
<totfact> 0.11569441E+06</totfact>
</mgrwt>
</event>
<event>
 5    1  0.1154861E-006  0.2000226E+02  0.7818608E-02  0.1745283E+00
          4   -1    0    0  501    0  0.00000000000E+00  0.00000000000E+00  0.56635012715E+02  0.56652811627E+02  0.14200000000E+01 0.  1.
         -4   -1    0    0    0  501 -0.00000000000E+00 -0.00000000000E+00 -0.14595776098E+01  0.20363611662E+01  0.14200000000E+01 0. -1.
       1023    2    1    2    0    0  0.00000000000E+00  0.00000000000E+00  0.55175435105E+02  0.58689172793E+02  0.20002258975E+02 0.  0.
        -11    1    3    3    0    0 -0.65054710724E+01 -0.75956189470E+01  0.27325122189E+02  0.29097712693E+02  0.51100000000E-03 0. -1.
         11    1    3    3    0    0  0.65054710724E+01  0.75956189470E+01  0.27850312916E+02  0.29591460100E+02  0.51100000000E-03 0.  1.
<mgrwt>
<rscale>  0 0.20002259E+02</rscale>
<asrwt>0</asrwt>
<pdfrwt beam="1">  1        4 0.87588153E-02 0.20002259E+02</pdfrwt>
<pdfrwt beam="2">  1       -4 0.27028754E-03 0.20002259E+02</pdfrwt>
<totfact> 0.11166886E+06</totfact>
</mgrwt>
</event>
<event>
 5    1  0.1154861E-006  0.2000083E+02  0.7818608E-02  0.1745312E+00
         -4   -1    0    0    0  501 -0.00000000000E+00  0.00000000000E+00  0.59772403719E+02  0.59789268655E+02  0.14200000000E+01 0.  1.
          4   -1    0    0  501    0  0.00000000000E+00 -0.00000000000E+00 -0.13516002579E+01  0.19604140525E+01  0.14200000000E+01 0. -1.
       1023    2    1    2    0    0  0.00000000000E+00  0.00000000000E+00  0.58420803461E+02  0.61749682708E+02  0.20000825920E+02 0.  0.
        -11    1    3    3    0    0 -0.79292012782E+01 -0.60938847797E+01  0.29135125198E+02  0.30803622923E+02  0.51100000000E-03 0.  1.
         11    1    3    3    0    0  0.79292012782E+01  0.60938847797E+01  0.29285678263E+02  0.30946059785E+02  0.51100000000E-03 0. -1.
<mgrwt>
<rscale>  0 0.20000826E+02</rscale>
<asrwt>0</asrwt>
<pdfrwt beam="2">  1        4 0.25606756E-03 0.20000826E+02</pdfrwt>
<pdfrwt beam="1">  1       -4 0.92438862E-02 0.20000826E+02</pdfrwt>
<totfact> 0.11051268E+06</totfact>
</mgrwt>
</event>
<event>
 5    1  0.1154861E-006  0.2000053E+02  0.7818608E-02  0.1745318E+00
          4   -1    0    0  501    0  0.00000000000E+00  0.00000000000E+00  0.53855032812E+02  0.53873750187E+02  0.14200000000E+01 0. -1.
         -4   -1    0    0    0  501 -0.00000000000E+00 -0.00000000000E+00 -0.15635587405E+01  0.21121353970E+01  0.14200000000E+01 0.  1.
       1023    2    1    2    0    0  0.00000000000E+00  0.00000000000E+00  0.52291474072E+02  0.55985885584E+02  0.20000528094E+02 0.  0.
        -11    1    3    3    0    0  0.63454097365E+01  0.77291214204E+01  0.26262437687E+02  0.28101942569E+02  0.51100000000E-03 0.  1.
         11    1    3    3    0    0 -0.63454097365E+01 -0.77291214204E+01  0.26029036385E+02  0.27883943015E+02  0.51100000000E-03 0. -1.
<mgrwt>
<rscale>  0 0.20000528E+02</rscale>
<asrwt>0</asrwt>
<pdfrwt beam="1">  1        4 0.83290279E-02 0.20000528E+02</pdfrwt>
<pdfrwt beam="2">  1       -4 0.28418549E-03 0.20000528E+02</pdfrwt>
<totfact> 0.11274952E+06</totfact>
</mgrwt>
</event>
<event>
 4    1  0.1154861E-006  0.2002123E+02  0.7818608E-02  0.1744906E+00
         -4   -1    0    0    0  501 -0.00000000000E+00  0.00000000000E+00  0.10139032748E+01  0.17448208649E+01  0.14200000000E+01 0.  1.
          4   -1    0    0  501    0  0.00000000000E+00 -0.00000000000E+00 -0.71911454960E+02  0.71925473613E+02  0.14200000000E+01 0. -1.
        -11    1    1    2    0    0 -0.48365870064E+00 -0.99974651468E+01 -0.34820779356E+02  0.36230786775E+02  0.51100000000E-03 0. -1.
         11    1    1    2    0    0  0.48365870064E+00  0.99974651468E+01 -0.36076772329E+02  0.37439507703E+02  0.51100000000E-03 0.  1.
<mgrwt>
<rscale>  0 0.20021225E+02</rscale>
<asrwt>0</asrwt>
<pdfrwt beam="2">  1        4 0.11120601E-01 0.20021225E+02</pdfrwt>
<pdfrwt beam="1">  1       -4 0.21328796E-03 0.20021225E+02</pdfrwt>
<totfact> 0.10600522E+06</totfact>
</mgrwt>
</event>
<event>
 5    1  0.1154861E-006  0.2000098E+02  0.7818608E-02  0.1745309E+00
         -4   -1    0    0    0  501 -0.00000000000E+00  0.00000000000E+00  0.74183671457E+02  0.74197260804E+02  0.14200000000E+01 0.  1.
          4   -1    0    0  501    0  0.00000000000E+00 -0.00000000000E+00 -0.95661391687E+00  0.17121653501E+01  0.14200000000E+01 0. -1.
       1023    2    1    2    0    0  0.00000000000E+00  0.00000000000E+00  0.73227057540E+02  0.75909426154E+02  0.20000975553E+02 0.  0.
        -11    1    3    3    0    0  0.76741781317E+01 -0.64120157141E+01  0.36412701324E+02  0.37760982157E+02  0.51100000000E-03 0.  1.
         11    1    3    3    0    0 -0.76741781317E+01  0.64120157141E+01  0.36814356216E+02  0.38148443997E+02  0.51100000000E-03 0. -1.
<mgrwt>
<rscale>  0 0.20000976E+02</rscale>
<asrwt>0</asrwt>
<pdfrwt beam="2">  1        4 0.20633607E-03 0.20000976E+02</pdfrwt>
<pdfrwt beam="1">  1       -4 0.11472036E-01 0.20000976E+02</pdfrwt>
<totfact> 0.10545914E+06</totfact>
</mgrwt>
</event>
<event>
 5    1  0.1154861E-006  0.2000261E+02  0.7818608E-02  0.1745276E+00
          4   -1    0    0  501    0  0.00000000000E+00  0.00000000000E+00  0.23923591515E+02  0.23965696964E+02  0.14200000000E+01 0.  1.
         -4   -1    0    0    0  501 -0.00000000000E+00 -0.00000000000E+00 -0.40132729492E+01  0.42570834810E+01  0.14200000000E+01 0. -1.
       1023    2    1    2    0    0  0.00000000000E+00  0.00000000000E+00  0.19910318565E+02  0.28222780445E+02  0.20002613596E+02 0.  0.
        -11    1    3    3    0    0  0.28341126006E+01  0.95911267071E+01  0.98633749943E+01  0.14046639181E+02  0.51100000000E-03 0. -1.
         11    1    3    3    0    0 -0.28341126006E+01 -0.95911267071E+01  0.10046943571E+02  0.14176141264E+02  0.51100000000E-03 0.  1.
<mgrwt>
<rscale>  0 0.20002614E+02</rscale>
<asrwt>0</asrwt>
<pdfrwt beam="1">  1        4 0.37025461E-02 0.20002614E+02</pdfrwt>
<pdfrwt beam="2">  1       -4 0.63942015E-03 0.20002614E+02</pdfrwt>
<totfact> 0.12546293E+06</totfact>
</mgrwt>
</event>
<event>
 5    1  0.1155270E-006  0.2000186E+02  0.7818608E-02  0.1745291E+00
         -4   -1    0    0    0  501 -0.00000000000E+00  0.00000000000E+00  0.28541260290E+01  0.31878574920E+01  0.14200000000E+01 0.  1.
          4   -1    0    0  501    0  0.00000000000E+00 -0.00000000000E+00 -0.32757921552E+02  0.32788684396E+02  0.14200000000E+01 0. -1.
       1023    2    1    2    0    0  0.00000000000E+00  0.00000000000E+00 -0.29903795523E+02  0.35976541888E+02  0.20001864401E+02 0.  0.
        -11    1    3    3    0    0 -0.42022041893E+01  0.90749567979E+01 -0.15082640480E+02  0.18096944633E+02  0.51100000000E-03 0. -1.
         11    1    3    3    0    0  0.42022041893E+01 -0.90749567979E+01 -0.14821155044E+02  0.17879597256E+02  0.51100000000E-03 0.  1.
<mgrwt>
<rscale>  0 0.20001864E+02</rscale>
<asrwt>0</asrwt>
<pdfrwt beam="2">  1        4 0.50677180E-02 0.20001864E+02</pdfrwt>
<pdfrwt beam="1">  1       -4 0.46713436E-03 0.20001864E+02</pdfrwt>
<totfact> 0.12151856E+06</totfact>
</mgrwt>
</event>
<event>
 5    1  0.1154861E-006  0.2000515E+02  0.7818608E-02  0.1745226E+00
         -4   -1    0    0    0  501 -0.00000000000E+00  0.00000000000E+00  0.26505277125E+02  0.26543287578E+02  0.14200000000E+01 0. -1.
          4   -1    0    0  501    0  0.00000000000E+00 -0.00000000000E+00 -0.35989623798E+01  0.38689701745E+01  0.14200000000E+01 0.  1.
       1023    2    1    2    0    0  0.00000000000E+00  0.00000000000E+00  0.22906314745E+02  0.30412257753E+02  0.20005153497E+02 0.  0.
        -11    1    3    3    0    0  0.93040721095E+01  0.36690725452E+01  0.11687143972E+02  0.15382366061E+02  0.51100000000E-03 0.  1.
         11    1    3    3    0    0 -0.93040721095E+01 -0.36690725452E+01  0.11219170773E+02  0.15029891691E+02  0.51100000000E-03 0. -1.
<mgrwt>
<rscale>  0 0.20005153E+02</rscale>
<asrwt>0</asrwt>
<pdfrwt beam="2">  1        4 0.57738021E-03 0.20005153E+02</pdfrwt>
<pdfrwt beam="1">  1       -4 0.41014288E-02 0.20005153E+02</pdfrwt>
<totfact> 0.12427757E+06</totfact>
</mgrwt>
</event>
<event>
 5    1  0.1154861E-006  0.2000023E+02  0.7818608E-02  0.1745324E+00
          4   -1    0    0  501    0  0.00000000000E+00  0.00000000000E+00  0.10301035114E+03  0.10302013804E+03  0.14200000000E+01 0.  1.
         -4   -1    0    0    0  501 -0.00000000000E+00 -0.00000000000E+00 -0.43635020388E+00  0.14855307134E+01  0.14200000000E+01 0. -1.
       1023    2    1    2    0    0  0.00000000000E+00  0.00000000000E+00  0.10257400093E+03  0.10450566875E+03  0.20000228342E+02 0.  0.
        -11    1    3    3    0    0  0.85335268080E+01  0.52133614482E+01  0.51524492620E+02  0.52485936758E+02  0.51100000000E-03 0. -1.
         11    1    3    3    0    0 -0.85335268080E+01 -0.52133614482E+01  0.51049508311E+02  0.52019731991E+02  0.51100000000E-03 0.  1.
<mgrwt>
<rscale>  0 0.20000228E+02</rscale>
<asrwt>0</asrwt>
<pdfrwt beam="1">  1        4 0.15929202E-01 0.20000228E+02</pdfrwt>
<pdfrwt beam="2">  1       -4 0.14858987E-03 0.20000228E+02</pdfrwt>
<totfact> 0.96745830E+05</totfact>
</mgrwt>
</event>
<event>
 5    1  0.1160681E-006  0.2000224E+02  0.7818608E-02  0.1745284E+00
         -4   -1    0    0    0  501 -0.00000000000E+00  0.00000000000E+00  0.42793524406E+01  0.45087977678E+01  0.14200000000E+01 0. -1.
          4   -1    0    0  501    0  0.00000000000E+00 -0.00000000000E+00 -0.22510607101E+02  0.22555350409E+02  0.14200000000E+01 0.  1.
       1023    2    1    2    0    0  0.00000000000E+00  0.00000000000E+00 -0.18231254661E+02  0.27064148177E+02  0.20002236626E+02 0.  0.
        -11    1    3    3    0    0 -0.33264353208E+01 -0.94317078251E+01 -0.91279396178E+01  0.13540368029E+02  0.51100000000E-03 0.  1.
         11    1    3    3    0    0  0.33264353208E+01  0.94317078251E+01 -0.91033150430E+01  0.13523780147E+02  0.51100000000E-03 0. -1.
<mgrwt>
<rscale>  0 0.20002237E+02</rscale>
<asrwt>0</asrwt>
<pdfrwt beam="2">  1        4 0.34842617E-02 0.20002237E+02</pdfrwt>
<pdfrwt beam="1">  1       -4 0.67945336E-03 0.20002237E+02</pdfrwt>
<totfact> 0.12609145E+06</totfact>
</mgrwt>
</event>
<event>
 5    1  0.1154861E-006  0.2000090E+02  0.7818608E-02  0.1745310E+00
          4   -1    0    0  501    0  0.00000000000E+00  0.00000000000E+00  0.12659973546E+01  0.19024061874E+01  0.14200000000E+01 0.  1.
         -4   -1    0    0    0  501 -0.00000000000E+00 -0.00000000000E+00 -0.62482829259E+02  0.62498962809E+02  0.14200000000E+01 0. -1.
       1023    2    1    2    0    0  0.00000000000E+00  0.00000000000E+00 -0.61216831905E+02  0.64401368997E+02  0.20000895485E+02 0.  0.
        -11    1    3    3    0    0  0.89985874327E+00  0.99598665265E+01 -0.30555722535E+02  0.32150596680E+02  0.51100000000E-03 0. -1.
         11    1    3    3    0    0 -0.89985874327E+00 -0.99598665265E+01 -0.30661109370E+02  0.32250772317E+02  0.51100000000E-03 0.  1.
<mgrwt>
<rscale>  0 0.20000895E+02</rscale>
<asrwt>0</asrwt>
<pdfrwt beam="1">  1        4 0.24496444E-03 0.20000895E+02</pdfrwt>
<pdfrwt beam="2">  1       -4 0.96629366E-02 0.20000895E+02</pdfrwt>
<totfact> 0.10952057E+06</totfact>
</mgrwt>
</event>
<event>
 5    1  0.1154861E-006  0.2000277E+02  0.7818608E-02  0.1745273E+00
          4   -1    0    0  501    0  0.00000000000E+00  0.00000000000E+00  0.47094217512E+02  0.47115620797E+02  0.14200000000E+01 0. -1.
         -4   -1    0    0    0  501 -0.00000000000E+00 -0.00000000000E+00 -0.18622379148E+01  0.23418646526E+01  0.14200000000E+01 0.  1.
       1023    2    1    2    0    0  0.00000000000E+00  0.00000000000E+00  0.45231979597E+02  0.49457485449E+02  0.20002772025E+02 0.  0.
        -11    1    3    3    0    0  0.58570569071E+01 -0.81055099367E+01  0.22993526543E+02  0.25074023812E+02  0.51100000000E-03 0.  1.
         11    1    3    3    0    0 -0.58570569071E+01  0.81055099367E+01  0.22238453054E+02  0.24383461638E+02  0.51100000000E-03 0. -1.
<mgrwt>
<rscale>  0 0.20002772E+02</rscale>
<asrwt>0</asrwt>
<pdfrwt beam="1">  1        4 0.72838044E-02 0.20002772E+02</pdfrwt>
<pdfrwt beam="2">  1       -4 0.32503894E-03 0.20002772E+02</pdfrwt>
<totfact> 0.11539865E+06</totfact>
</mgrwt>
</event>
<event>
 5    1  0.1154861E-006  0.2000289E+02  0.7818608E-02  0.1745271E+00
          4   -1    0    0  501    0  0.00000000000E+00  0.00000000000E+00  0.28913505676E+02  0.28948354193E+02  0.14200000000E+01 0.  1.
         -4   -1    0    0    0  501 -0.00000000000E+00 -0.00000000000E+00 -0.32752813313E+01  0.35698554311E+01  0.14200000000E+01 0. -1.
       1023    2    1    2    0    0  0.00000000000E+00  0.00000000000E+00  0.25638224345E+02  0.32518209624E+02  0.20002885032E+02 0.  0.
        -11    1    3    3    0    0  0.10000310886E+02 -0.11566059529E+00  0.12662700881E+02  0.16135785975E+02  0.51100000000E-03 0. -1.
         11    1    3    3    0    0 -0.10000310886E+02  0.11566059529E+00  0.12975523464E+02  0.16382423649E+02  0.51100000000E-03 0.  1.
<mgrwt>
<rscale>  0 0.20002885E+02</rscale>
<asrwt>0</asrwt>
<pdfrwt beam="1">  1        4 0.44735716E-02 0.20002885E+02</pdfrwt>
<pdfrwt beam="2">  1       -4 0.52922967E-03 0.20002885E+02</pdfrwt>
<totfact> 0.12322473E+06</totfact>
</mgrwt>
</event>
<event>
 5    1  0.1154861E-006  0.2000978E+02  0.7818608E-02  0.1745134E+00
         -4   -1    0    0    0  501 -0.00000000000E+00  0.00000000000E+00  0.33558372888E+01  0.36439050356E+01  0.14200000000E+01 0. -1.
          4   -1    0    0  501    0  0.00000000000E+00 -0.00000000000E+00 -0.28293831553E+02  0.28329442352E+02  0.14200000000E+01 0.  1.
       1023    2    1    2    0    0  0.00000000000E+00  0.00000000000E+00 -0.24937994264E+02  0.31973347387E+02  0.20009782238E+02 0.  0.
        -11    1    3    3    0    0  0.40133933289E+01 -0.91606876150E+01 -0.12039280345E+02  0.15651510952E+02  0.51100000000E-03 0. -1.
         11    1    3    3    0    0 -0.40133933289E+01  0.91606876150E+01 -0.12898713920E+02  0.16321836436E+02  0.51100000000E-03 0.  1.
<mgrwt>
<rscale>  0 0.20009782E+02</rscale>
<asrwt>0</asrwt>
<pdfrwt beam="2">  1        4 0.43777954E-02 0.20009782E+02</pdfrwt>
<pdfrwt beam="1">  1       -4 0.54118103E-03 0.20009782E+02</pdfrwt>
<totfact> 0.12341566E+06</totfact>
</mgrwt>
</event>
<event>
 5    1  0.1202271E-006  0.2000131E+02  0.7818608E-02  0.1745302E+00
          4   -1    0    0  501    0  0.00000000000E+00  0.00000000000E+00  0.33804954000E+01  0.36666263990E+01  0.14200000000E+01 0.  1.
         -4   -1    0    0    0  501 -0.00000000000E+00 -0.00000000000E+00 -0.28079295569E+02  0.28115178101E+02  0.14200000000E+01 0. -1.
       1023    2    1    2    0    0  0.00000000000E+00  0.00000000000E+00 -0.24698800169E+02  0.31781804500E+02  0.20001309144E+02 0.  0.
        -11    1    3    3    0    0 -0.27980207083E+01 -0.96009903220E+01 -0.12235296216E+02  0.15802227969E+02  0.51100000000E-03 0. -1.
         11    1    3    3    0    0  0.27980207083E+01  0.96009903220E+01 -0.12463503953E+02  0.15979576531E+02  0.51100000000E-03 0.  1.
<mgrwt>
<rscale>  0 0.20001309E+02</rscale>
<asrwt>0</asrwt>
<pdfrwt beam="1">  1        4 0.54484651E-03 0.20001309E+02</pdfrwt>
<pdfrwt beam="2">  1       -4 0.43446617E-02 0.20001309E+02</pdfrwt>
<totfact> 0.12361980E+06</totfact>
</mgrwt>
</event>
<event>
 5    1  0.1154861E-006  0.2000343E+02  0.7818608E-02  0.1745260E+00
          4   -1    0    0  501    0  0.00000000000E+00  0.00000000000E+00  0.13595656722E+02  0.13669611615E+02  0.14200000000E+01 0.  1.
         -4   -1    0    0    0  501 -0.00000000000E+00 -0.00000000000E+00 -0.71943140954E+01  0.73331136159E+01  0.14200000000E+01 0. -1.
       1023    2    1    2    0    0  0.00000000000E+00  0.00000000000E+00  0.64013426269E+01  0.21002725231E+02  0.20003431698E+02 0.  0.
        -11    1    3    3    0    0  0.74125491453E-01 -0.10001178227E+02  0.31245284584E+01  0.10478155317E+02  0.51100000000E-03 0.  1.
         11    1    3    3    0    0 -0.74125491453E-01  0.10001178227E+02  0.32768141684E+01  0.10524569914E+02  0.51100000000E-03 0. -1.
<mgrwt>
<rscale>  0 0.20003432E+02</rscale>
<asrwt>0</asrwt>
<pdfrwt beam="1">  1        4 0.21080052E-02 0.20003432E+02</pdfrwt>
<pdfrwt beam="2">  1       -4 0.11231833E-02 0.20003432E+02</pdfrwt>
<totfact> 0.12950055E+06</totfact>
</mgrwt>
</event>
<event>
 5    1  0.1175645E-006  0.2000170E+02  0.7818608E-02  0.1745294E+00
         -4   -1    0    0    0  501 -0.00000000000E+00  0.00000000000E+00  0.38517136653E+01  0.41051307116E+01  0.14200000000E+01 0. -1.
          4   -1    0    0  501    0  0.00000000000E+00 -0.00000000000E+00 -0.24865547515E+02  0.24906060573E+02  0.14200000000E+01 0.  1.
       1023    2    1    2    0    0  0.00000000000E+00  0.00000000000E+00 -0.21013833850E+02  0.29011191284E+02  0.20001700094E+02 0.  0.
        -11    1    3    3    0    0 -0.44008946582E+01 -0.89800710214E+01 -0.10632126291E+02  0.14596289223E+02  0.51100000000E-03 0. -1.
         11    1    3    3    0    0  0.44008946582E+01  0.89800710214E+01 -0.10381707559E+02  0.14414902061E+02  0.51100000000E-03 0.  1.
<mgrwt>
<rscale>  0 0.20001700E+02</rscale>
<asrwt>0</asrwt>
<pdfrwt beam="2">  1        4 0.38480788E-02 0.20001700E+02</pdfrwt>
<pdfrwt beam="1">  1       -4 0.61518135E-03 0.20001700E+02</pdfrwt>
<totfact> 0.12505551E+06</totfact>
</mgrwt>
</event>
<event>
 5    1  0.1154861E-006  0.2000169E+02  0.7818608E-02  0.1745294E+00
         -4   -1    0    0    0  501 -0.00000000000E+00  0.00000000000E+00  0.44158405705E+02  0.44181231246E+02  0.14200000000E+01 0.  1.
          4   -1    0    0  501    0  0.00000000000E+00 -0.00000000000E+00 -0.20165932914E+01  0.24663836893E+01  0.14200000000E+01 0. -1.
       1023    2    1    2    0    0  0.00000000000E+00  0.00000000000E+00  0.42141812414E+02  0.46647614936E+02  0.20001690570E+02 0.  0.
        -11    1    3    3    0    0  0.97332909982E+01  0.22964046458E+01  0.21258617243E+02  0.23493387055E+02  0.51100000000E-03 0. -1.
         11    1    3    3    0    0 -0.97332909982E+01 -0.22964046458E+01  0.20883195171E+02  0.23154227881E+02  0.51100000000E-03 0.  1.
<mgrwt>
<rscale>  0 0.20001691E+02</rscale>
<asrwt>0</asrwt>
<pdfrwt beam="2">  1        4 0.34660019E-03 0.20001691E+02</pdfrwt>
<pdfrwt beam="1">  1       -4 0.68299560E-02 0.20001691E+02</pdfrwt>
<totfact> 0.11661573E+06</totfact>
</mgrwt>
</event>
<event>
 5    1  0.1195368E-006  0.2000098E+02  0.7818608E-02  0.1745309E+00
          4   -1    0    0  501    0  0.00000000000E+00  0.00000000000E+00  0.10460744361E+02  0.10556683787E+02  0.14200000000E+01 0. -1.
         -4   -1    0    0    0  501 -0.00000000000E+00 -0.00000000000E+00 -0.93671490540E+01  0.94741691667E+01  0.14200000000E+01 0.  1.
       1023    2    1    2    0    0  0.00000000000E+00  0.00000000000E+00  0.10935953068E+01  0.20030852954E+02  0.20000977960E+02 0.  0.
        -11    1    3    3    0    0 -0.61474341989E+01 -0.78877374931E+01  0.49743316333E+00  0.10012731396E+02  0.51100000000E-03 0. -1.
         11    1    3    3    0    0  0.61474341989E+01  0.78877374931E+01  0.59616214348E+00  0.10018121558E+02  0.51100000000E-03 0.  1.
<mgrwt>
<rscale>  0 0.20000978E+02</rscale>
<asrwt>0</asrwt>
<pdfrwt beam="1">  1        4 0.16249576E-02 0.20000978E+02</pdfrwt>
<pdfrwt beam="2">  1       -4 0.14567121E-02 0.20000978E+02</pdfrwt>
<totfact> 0.13010915E+06</totfact>
</mgrwt>
</event>
<event>
 5    1  0.1154861E-006  0.2000036E+02  0.7818608E-02  0.1745321E+00
         -4   -1    0    0    0  501 -0.00000000000E+00  0.00000000000E+00  0.34932563351E+00  0.14623366227E+01  0.14200000000E+01 0. -1.
          4   -1    0    0  501    0  0.00000000000E+00 -0.00000000000E+00 -0.10927934865E+03  0.10928857416E+03  0.14200000000E+01 0.  1.
       1023    2    1    2    0    0  0.00000000000E+00  0.00000000000E+00 -0.10893002302E+03  0.11075091078E+03  0.20000358104E+02 0.  0.
        -11    1    3    3    0    0  0.86048925998E+01 -0.50948966436E+01 -0.54674583418E+02  0.55581581667E+02  0.51100000000E-03 0.  1.
         11    1    3    3    0    0 -0.86048925998E+01  0.50948966436E+01 -0.54255439598E+02  0.55169329113E+02  0.51100000000E-03 0. -1.
<mgrwt>
<rscale>  0 0.20000358E+02</rscale>
<asrwt>0</asrwt>
<pdfrwt beam="2">  1        4 0.16898523E-01 0.20000358E+02</pdfrwt>
<pdfrwt beam="1">  1       -4 0.14006838E-03 0.20000358E+02</pdfrwt>
<totfact> 0.95049249E+05</totfact>
</mgrwt>
</event>
<event>
 4    1  0.1154861E-006  0.2004615E+02  0.7818608E-02  0.1744412E+00
         -4   -1    0    0    0  501 -0.00000000000E+00  0.00000000000E+00  0.71391075063E+01  0.72789598149E+01  0.14200000000E+01 0. -1.
          4   -1    0    0  501    0  0.00000000000E+00 -0.00000000000E+00 -0.13758826773E+02  0.13831909274E+02  0.14200000000E+01 0. -1.
        -11    1    1    2    0    0 -0.91281132365E+01  0.41394524293E+01 -0.32391385482E+01  0.10533258587E+02  0.51100000000E-03 0. -1.
         11    1    1    2    0    0  0.91281132365E+01 -0.41394524293E+01 -0.33805807188E+01  0.10577610502E+02  0.51100000000E-03 0.  1.
<mgrwt>
<rscale>  0 0.20046150E+02</rscale>
<asrwt>0</asrwt>
<pdfrwt beam="2">  1        4 0.21331222E-02 0.20046150E+02</pdfrwt>
<pdfrwt beam="1">  1       -4 0.11147038E-02 0.20046150E+02</pdfrwt>
<totfact> 0.12887452E+06</totfact>
</mgrwt>
</event>
<event>
 5    1  0.1154861E-006  0.2000180E+02  0.7818608E-02  0.1745292E+00
         -4   -1    0    0    0  501 -0.00000000000E+00  0.00000000000E+00  0.18672230598E+01  0.23458307601E+01  0.14200000000E+01 0. -1.
          4   -1    0    0  501    0  0.00000000000E+00 -0.00000000000E+00 -0.46989481457E+02  0.47010932426E+02  0.14200000000E+01 0.  1.
       1023    2    1    2    0    0  0.00000000000E+00  0.00000000000E+00 -0.45122258397E+02  0.49356763186E+02  0.20001796654E+02 0.  0.
        -11    1    3    3    0    0 -0.59451819990E-01  0.10000706482E+02 -0.22518215740E+02  0.24639149844E+02  0.51100000000E-03 0. -1.
         11    1    3    3    0    0  0.59451819990E-01 -0.10000706482E+02 -0.22604042657E+02  0.24717613342E+02  0.51100000000E-03 0.  1.
<mgrwt>
<rscale>  0 0.20001797E+02</rscale>
<asrwt>0</asrwt>
<pdfrwt beam="2">  1        4 0.72676163E-02 0.20001797E+02</pdfrwt>
<pdfrwt beam="1">  1       -4 0.32573117E-03 0.20001797E+02</pdfrwt>
<totfact> 0.11545261E+06</totfact>
</mgrwt>
</event>
<event>
 5    1  0.1170443E-006  0.2000084E+02  0.7818608E-02  0.1745311E+00
          4   -1    0    0  501    0  0.00000000000E+00  0.00000000000E+00  0.56234363092E+01  0.57999513725E+01  0.14200000000E+01 0.  1.
         -4   -1    0    0    0  501 -0.00000000000E+00 -0.00000000000E+00 -0.17303360132E+02  0.17361528500E+02  0.14200000000E+01 0. -1.
       1023    2    1    2    0    0  0.00000000000E+00  0.00000000000E+00 -0.11679923822E+02  0.23161479872E+02  0.20000838217E+02 0.  0.
        -11    1    3    3    0    0 -0.95928900907E+01 -0.28242917965E+01 -0.59449382996E+01  0.11633677668E+02  0.51100000000E-03 0.  1.
         11    1    3    3    0    0  0.95928900907E+01  0.28242917965E+01 -0.57349855228E+01  0.11527802204E+02  0.51100000000E-03 0. -1.
<mgrwt>
<rscale>  0 0.20000838E+02</rscale>
<asrwt>0</asrwt>
<pdfrwt beam="1">  1        4 0.88319663E-03 0.20000838E+02</pdfrwt>
<pdfrwt beam="2">  1       -4 0.26801079E-02 0.20000838E+02</pdfrwt>
<totfact> 0.12828250E+06</totfact>
</mgrwt>
</event>
<event>
 5    1  0.1154861E-006  0.2000066E+02  0.7818608E-02  0.1745315E+00
         -4   -1    0    0    0  501 -0.00000000000E+00  0.00000000000E+00  0.43723139050E+02  0.43746191701E+02  0.14200000000E+01 0. -1.
          4   -1    0    0  501    0  0.00000000000E+00 -0.00000000000E+00 -0.20408513872E+01  0.24862571035E+01  0.14200000000E+01 0.  1.
       1023    2    1    2    0    0  0.00000000000E+00  0.00000000000E+00  0.41682287663E+02  0.46232448805E+02  0.20000655432E+02 0.  0.
        -11    1    3    3    0    0 -0.96141531467E+01  0.27520040410E+01  0.20917361604E+02  0.23184940882E+02  0.51100000000E-03 0. -1.
         11    1    3    3    0    0  0.96141531467E+01 -0.27520040410E+01  0.20764926058E+02  0.23047507922E+02  0.51100000000E-03 0.  1.
<mgrwt>
<rscale>  0 0.20000655E+02</rscale>
<asrwt>0</asrwt>
<pdfrwt beam="2">  1        4 0.35001241E-03 0.20000655E+02</pdfrwt>
<pdfrwt beam="1">  1       -4 0.67626718E-02 0.20000655E+02</pdfrwt>
<totfact> 0.11680881E+06</totfact>
</mgrwt>
</event>
<event>
 5    1  0.1206855E-006  0.2000119E+02  0.7818608E-02  0.1745304E+00
         -4   -1    0    0    0  501 -0.00000000000E+00  0.00000000000E+00  0.91807272044E+01  0.92898951556E+01  0.14200000000E+01 0.  1.
          4   -1    0    0  501    0  0.00000000000E+00 -0.00000000000E+00 -0.10672821181E+02  0.10766871039E+02  0.14200000000E+01 0. -1.
       1023    2    1    2    0    0  0.00000000000E+00  0.00000000000E+00 -0.14920939769E+01  0.20056766194E+02  0.20001188108E+02 0.  0.
        -11    1    3    3    0    0 -0.29502434808E+01 -0.95554562669E+01 -0.78078584285E+00  0.10030967444E+02  0.51100000000E-03 0. -1.
         11    1    3    3    0    0  0.29502434808E+01  0.95554562669E+01 -0.71130813403E+00  0.10025798751E+02  0.51100000000E-03 0.  1.
<mgrwt>
<rscale>  0 0.20001188E+02</rscale>
<asrwt>0</asrwt>
<pdfrwt beam="2">  1        4 0.16576046E-02 0.20001188E+02</pdfrwt>
<pdfrwt beam="1">  1       -4 0.14280517E-02 0.20001188E+02</pdfrwt>
<totfact> 0.13009098E+06</totfact>
</mgrwt>
</event>
<event>
 4    1  0.1154861E-006  0.2001335E+02  0.7818608E-02  0.1745063E+00
         -4   -1    0    0    0  501 -0.00000000000E+00  0.00000000000E+00  0.25886651980E+02  0.25925569439E+02  0.14200000000E+01 0.  1.
          4   -1    0    0  501    0  0.00000000000E+00 -0.00000000000E+00 -0.36944816500E+01  0.39579786081E+01  0.14200000000E+01 0. -1.
        -11    1    1    2    0    0  0.47412888038E+00  0.99943850123E+01  0.11312337521E+02  0.15102367709E+02  0.51100000000E-03 0.  1.
         11    1    1    2    0    0 -0.47412888038E+00 -0.99943850123E+01  0.10879832809E+02  0.14781180338E+02  0.51100000000E-03 0. -1.
<mgrwt>
<rscale>  0 0.20013346E+02</rscale>
<asrwt>0</asrwt>
<pdfrwt beam="2">  1        4 0.59164444E-03 0.20013346E+02</pdfrwt>
<pdfrwt beam="1">  1       -4 0.40058245E-02 0.20013346E+02</pdfrwt>
<totfact> 0.12444945E+06</totfact>
</mgrwt>
</event>
<event>
 5    1  0.1192624E-006  0.2000093E+02  0.7818608E-02  0.1745310E+00
          4   -1    0    0  501    0  0.00000000000E+00  0.00000000000E+00  0.95322297971E+01  0.96374169208E+01  0.14200000000E+01 0.  1.
         -4   -1    0    0    0  501 -0.00000000000E+00 -0.00000000000E+00 -0.10279865596E+02  0.10377477375E+02  0.14200000000E+01 0. -1.
       1023    2    1    2    0    0  0.00000000000E+00  0.00000000000E+00 -0.74763579886E+00  0.20014894296E+02  0.20000925838E+02 0.  0.
        -11    1    3    3    0    0  0.68314582192E+01  0.73034444148E+01 -0.38551434357E+00  0.10007884057E+02  0.51100000000E-03 0.  1.
         11    1    3    3    0    0 -0.68314582192E+01 -0.73034444148E+01 -0.36212145529E+00  0.10007010239E+02  0.51100000000E-03 0. -1.
<mgrwt>
<rscale>  0 0.20000926E+02</rscale>
<asrwt>0</asrwt>
<pdfrwt beam="1">  1        4 0.14820968E-02 0.20000926E+02</pdfrwt>
<pdfrwt beam="2">  1       -4 0.15971177E-02 0.20000926E+02</pdfrwt>
<totfact> 0.13011931E+06</totfact>
</mgrwt>
</event>
<event>
 5    1  0.1154861E-006  0.2000017E+02  0.7818608E-02  0.1745325E+00
          4   -1    0    0  501    0  0.00000000000E+00  0.00000000000E+00  0.27500845523E+02  0.27537481810E+02  0.14200000000E+01 0.  1.
         -4   -1    0    0    0  501 -0.00000000000E+00 -0.00000000000E+00 -0.34570235915E+01  0.37373001100E+01  0.14200000000E+01 0. -1.
       1023    2    1    2    0    0  0.00000000000E+00  0.00000000000E+00  0.24043821931E+02  0.31274781920E+02  0.20000165277E+02 0.  0.
        -11    1    3    3    0    0  0.98600074757E+01 -0.16678764193E+01  0.12037019023E+02  0.15649005924E+02  0.51100000000E-03 0.  1.
         11    1    3    3    0    0 -0.98600074757E+01  0.16678764193E+01  0.12006802908E+02  0.15625775997E+02  0.51100000000E-03 0. -1.
<mgrwt>
<rscale>  0 0.20000165E+02</rscale>
<asrwt>0</asrwt>
<pdfrwt beam="1">  1        4 0.42552772E-02 0.20000165E+02</pdfrwt>
<pdfrwt beam="2">  1       -4 0.55622770E-03 0.20000165E+02</pdfrwt>
<totfact> 0.12389460E+06</totfact>
</mgrwt>
</event>
<event>
 5    1  0.1154861E-006  0.2000019E+02  0.7818608E-02  0.1745324E+00
         -4   -1    0    0    0  501 -0.00000000000E+00  0.00000000000E+00  0.14413060414E+02  0.14482841934E+02  0.14200000000E+01 0. -1.
          4   -1    0    0  501    0  0.00000000000E+00 -0.00000000000E+00 -0.67779973213E+01  0.69251460409E+01  0.14200000000E+01 0.  1.
       1023    2    1    2    0    0  0.00000000000E+00  0.00000000000E+00  0.76350630922E+01  0.21407987975E+02  0.20000194017E+02 0.  0.
        -11    1    3    3    0    0 -0.98929538118E+01  0.14599329724E+01  0.38167671055E+01  0.10703721353E+02  0.51100000000E-03 0.  1.
         11    1    3    3    0    0  0.98929538118E+01 -0.14599329724E+01  0.38182959867E+01  0.10704266622E+02  0.51100000000E-03 0. -1.
<mgrwt>
<rscale>  0 0.20000194E+02</rscale>
<asrwt>0</asrwt>
<pdfrwt beam="2">  1        4 0.10594558E-02 0.20000194E+02</pdfrwt>
<pdfrwt beam="1">  1       -4 0.22340809E-02 0.20000194E+02</pdfrwt>
<totfact> 0.12930498E+06</totfact>
</mgrwt>
</event>
<event>
 5    1  0.1154861E-006  0.2001232E+02  0.7818608E-02  0.1745083E+00
          4   -1    0    0  501    0  0.00000000000E+00  0.00000000000E+00  0.21801647126E+02  0.21847842397E+02  0.14200000000E+01 0.  1.
         -4   -1    0    0    0  501 -0.00000000000E+00 -0.00000000000E+00 -0.44302853509E+01  0.46522927993E+01  0.14200000000E+01 0. -1.
       1023    2    1    2    0    0  0.00000000000E+00  0.00000000000E+00  0.17371361775E+02  0.26500135197E+02  0.20012320093E+02 0.  0.
        -11    1    3    3    0    0  0.42349410849E+01  0.90641403817E+01  0.89145467870E+01  0.13400093714E+02  0.51100000000E-03 0.  1.
         11    1    3    3    0    0 -0.42349410849E+01 -0.90641403817E+01  0.84568149883E+01  0.13100041483E+02  0.51100000000E-03 0. -1.
<mgrwt>
<rscale>  0 0.20012320E+02</rscale>
<asrwt>0</asrwt>
<pdfrwt beam="1">  1        4 0.33747306E-02 0.20012320E+02</pdfrwt>
<pdfrwt beam="2">  1       -4 0.70221333E-03 0.20012320E+02</pdfrwt>
<totfact> 0.12626896E+06</totfact>
</mgrwt>
</event>
<event>
 5    1  0.1154861E-006  0.2000018E+02  0.7818608E-02  0.1745324E+00
         -4   -1    0    0    0  501 -0.00000000000E+00  0.00000000000E+00  0.54768936483E+01  0.56579823290E+01  0.14200000000E+01 0. -1.
          4   -1    0    0  501    0  0.00000000000E+00 -0.00000000000E+00 -0.17752007504E+02  0.17808710521E+02  0.14200000000E+01 0.  1.
       1023    2    1    2    0    0  0.00000000000E+00  0.00000000000E+00 -0.12275113856E+02  0.23466692850E+02  0.20000181328E+02 0.  0.
        -11    1    3    3    0    0 -0.30409384692E+00  0.99954219604E+01 -0.61027545899E+01  0.11715141787E+02  0.51100000000E-03 0. -1.
         11    1    3    3    0    0  0.30409384692E+00 -0.99954219604E+01 -0.61723592662E+01  0.11751551064E+02  0.51100000000E-03 0.  1.
<mgrwt>
<rscale>  0 0.20000181E+02</rscale>
<asrwt>0</asrwt>
<pdfrwt beam="2">  1        4 0.27493697E-02 0.20000181E+02</pdfrwt>
<pdfrwt beam="1">  1       -4 0.86089070E-03 0.20000181E+02</pdfrwt>
<totfact> 0.12811722E+06</totfact>
</mgrwt>
</event>
<event>
 5    1  0.1154861E-006  0.2000036E+02  0.7818608E-02  0.1745321E+00
         -4   -1    0    0    0  501 -0.00000000000E+00  0.00000000000E+00  0.48186316205E+02  0.48207234617E+02  0.14200000000E+01 0. -1.
          4   -1    0    0  501    0  0.00000000000E+00 -0.00000000000E+00 -0.18084982313E+01  0.22993620534E+01  0.14200000000E+01 0.  1.
       1023    2    1    2    0    0  0.00000000000E+00  0.00000000000E+00  0.46377817974E+02  0.50506596670E+02  0.20000357677E+02 0.  0.
        -11    1    3    3    0    0 -0.34864114011E+00  0.99940826308E+01  0.23142463847E+02  0.25210649961E+02  0.51100000000E-03 0. -1.
         11    1    3    3    0    0  0.34864114011E+00 -0.99940826308E+01  0.23235354127E+02  0.25295946710E+02  0.51100000000E-03 0.  1.
<mgrwt>
<rscale>  0 0.20000358E+02</rscale>
<asrwt>0</asrwt>
<pdfrwt beam="2">  1        4 0.31759840E-03 0.20000358E+02</pdfrwt>
<pdfrwt beam="1">  1       -4 0.74526464E-02 0.20000358E+02</pdfrwt>
<totfact> 0.11498549E+06</totfact>
</mgrwt>
</event>
<event>
 5    1  0.1154861E-006  0.2000080E+02  0.7818608E-02  0.1745312E+00
         -4   -1    0    0    0  501 -0.00000000000E+00  0.00000000000E+00  0.95959798381E+01  0.97004757128E+01  0.14200000000E+01 0. -1.
          4   -1    0    0  501    0  0.00000000000E+00 -0.00000000000E+00 -0.10211538216E+02  0.10309796930E+02  0.14200000000E+01 0.  1.
       1023    2    1    2    0    0  0.00000000000E+00  0.00000000000E+00 -0.61555837791E+00  0.20010272643E+02  0.20000802462E+02 0.  0.
        -11    1    3    3    0    0  0.85760282872E+01  0.51436911975E+01 -0.35475033814E+00  0.10006581253E+02  0.51100000000E-03 0. -1.
         11    1    3    3    0    0 -0.85760282872E+01 -0.51436911975E+01 -0.26080803977E+00  0.10003691389E+02  0.51100000000E-03 0.  1.
<mgrwt>
<rscale>  0 0.20000802E+02</rscale>
<asrwt>0</asrwt>
<pdfrwt beam="2">  1        4 0.15866024E-02 0.20000802E+02</pdfrwt>
<pdfrwt beam="1">  1       -4 0.14919011E-02 0.20000802E+02</pdfrwt>
<totfact> 0.13012369E+06</totfact>
</mgrwt>
</event>
<event>
 4    1  0.1405626E-006  0.2050872E+02  0.7818608E-02  0.1735397E+00
          4   -1    0    0  501    0  0.00000000000E+00  0.00000000000E+00  0.57392539564E+01  0.59123122360E+01  0.14200000000E+01 0. -1.
         -4   -1    0    0    0  501 -0.00000000000E+00 -0.00000000000E+00 -0.17847732881E+02  0.17904132735E+02  0.14200000000E+01 0.  1.
        -11    1    1    2    0    0 -0.99286078994E+01 -0.20958927448E+01 -0.77696112808E+01  0.12780331801E+02  0.51100000000E-03 0. -1.
         11    1    1    2    0    0  0.99286078994E+01  0.20958927448E+01 -0.43388676439E+01  0.11036113170E+02  0.51100000000E-03 0.  1.
<mgrwt>
<rscale>  0 0.20508725E+02</rscale>
<asrwt>0</asrwt>
<pdfrwt beam="1">  1        4 0.90061278E-03 0.20508725E+02</pdfrwt>
<pdfrwt beam="2">  1       -4 0.27634557E-02 0.20508725E+02</pdfrwt>
<totfact> 0.12150017E+06</totfact>
</mgrwt>
</event>
<event>
 5    1  0.1154861E-006  0.2000165E+02  0.7818608E-02  0.1745295E+00
          4   -1    0    0  501    0  0.00000000000E+00  0.00000000000E+00  0.46014925449E+02  0.46036830517E+02  0.14200000000E+01 0.  1.
         -4   -1    0    0    0  501 -0.00000000000E+00 -0.00000000000E+00 -0.19167415076E+01  0.23854345530E+01  0.14200000000E+01 0. -1.
       1023    2    1    2    0    0  0.00000000000E+00  0.00000000000E+00  0.44098183942E+02  0.48422265070E+02  0.20001648122E+02 0.  0.
        -11    1    3    3    0    0  0.35205205372E+01  0.93606567461E+01  0.21993776914E+02  0.24160757082E+02  0.51100000000E-03 0. -1.
         11    1    3    3    0    0 -0.35205205372E+01 -0.93606567461E+01  0.22104407027E+02  0.24261507988E+02  0.51100000000E-03 0.  1.
<mgrwt>
<rscale>  0 0.20001648E+02</rscale>
<asrwt>0</asrwt>
<pdfrwt beam="1">  1        4 0.71169574E-02 0.20001648E+02</pdfrwt>
<pdfrwt beam="2">  1       -4 0.33262164E-03 0.20001648E+02</pdfrwt>
<totfact> 0.11585159E+06</totfact>
</mgrwt>
</event>
<event>
 5    1  0.1154861E-006  0.2000365E+02  0.7818608E-02  0.1745255E+00
          4   -1    0    0  501    0  0.00000000000E+00  0.00000000000E+00  0.13780162319E+02  0.13853132264E+02  0.14200000000E+01 0. -1.
         -4   -1    0    0    0  501 -0.00000000000E+00 -0.00000000000E+00 -0.70967985181E+01  0.72374684253E+01  0.14200000000E+01 0.  1.
       1023    2    1    2    0    0  0.00000000000E+00  0.00000000000E+00  0.66833638005E+01  0.21090600689E+02  0.20003651810E+02 0.  0.
        -11    1    3    3    0    0  0.72643508768E+01  0.68750066574E+01  0.33451749639E+01  0.10546407256E+02  0.51100000000E-03 0.  1.
         11    1    3    3    0    0 -0.72643508768E+01 -0.68750066574E+01  0.33381888366E+01  0.10544193434E+02  0.51100000000E-03 0. -1.
<mgrwt>
<rscale>  0 0.20003652E+02</rscale>
<asrwt>0</asrwt>
<pdfrwt beam="1">  1        4 0.21364588E-02 0.20003652E+02</pdfrwt>
<pdfrwt beam="2">  1       -4 0.11082490E-02 0.20003652E+02</pdfrwt>
<totfact> 0.12944584E+06</totfact>
</mgrwt>
</event>
<event>
 4    1  0.1558180E-006  0.2199876E+02  0.7818608E-02  0.1708273E+00
         -4   -1    0    0    0  501 -0.00000000000E+00  0.00000000000E+00  0.15326592565E+02  0.15392233095E+02  0.14200000000E+01 0.  1.
          4   -1    0    0  501    0  0.00000000000E+00 -0.00000000000E+00 -0.77467015678E+01  0.78757720371E+01  0.14200000000E+01 0. -1.
        -11    1    1    2    0    0  0.70552420560E+01 -0.82722728259E+01  0.55532843720E+01  0.12208435844E+02  0.51100000000E-03 0.  1.
         11    1    1    2    0    0 -0.70552420560E+01  0.82722728259E+01  0.20266066255E+01  0.11059569289E+02  0.51100000000E-03 0. -1.
<mgrwt>
<rscale>  0 0.21998757E+02</rscale>
<asrwt>0</asrwt>
<pdfrwt beam="2">  1        4 0.12067780E-02 0.21998757E+02</pdfrwt>
<pdfrwt beam="1">  1       -4 0.23729151E-02 0.21998757E+02</pdfrwt>
<totfact> 0.10524888E+06</totfact>
</mgrwt>
</event>
<event>
 5    1  0.1154861E-006  0.2000068E+02  0.7818608E-02  0.1745315E+00
         -4   -1    0    0    0  501 -0.00000000000E+00  0.00000000000E+00  0.87616016205E+00  0.16685492590E+01  0.14200000000E+01 0. -1.
          4   -1    0    0  501    0  0.00000000000E+00 -0.00000000000E+00 -0.77798893408E+02  0.77811851383E+02  0.14200000000E+01 0.  1.
       1023    2    1    2    0    0  0.00000000000E+00  0.00000000000E+00 -0.76922733246E+02  0.79480400641E+02  0.20000679889E+02 0.  0.
        -11    1    3    3    0    0  0.99463989667E+01  0.10372549462E+01 -0.38489047350E+02  0.39766990286E+02  0.51100000000E-03 0.  1.
         11    1    3    3    0    0 -0.99463989667E+01 -0.10372549462E+01 -0.38433685896E+02  0.39713410355E+02  0.51100000000E-03 0. -1.
<mgrwt>
<rscale>  0 0.20000680E+02</rscale>
<asrwt>0</asrwt>
<pdfrwt beam="2">  1        4 0.12031007E-01 0.20000680E+02</pdfrwt>
<pdfrwt beam="1">  1       -4 0.19674371E-03 0.20000680E+02</pdfrwt>
<totfact> 0.10427468E+06</totfact>
</mgrwt>
</event>
<event>
 5    1  0.1201180E-006  0.2000138E+02  0.7818608E-02  0.1745301E+00
         -4   -1    0    0    0  501 -0.00000000000E+00  0.00000000000E+00  0.16945778996E+02  0.17005170560E+02  0.14200000000E+01 0.  1.
          4   -1    0    0  501    0  0.00000000000E+00 -0.00000000000E+00 -0.57456849184E+01  0.59185551600E+01  0.14200000000E+01 0. -1.
       1023    2    1    2    0    0  0.00000000000E+00  0.00000000000E+00  0.11200094078E+02  0.22923725720E+02  0.20001377291E+02 0.  0.
        -11    1    3    3    0    0  0.51958212118E+01 -0.85446785113E+01  0.55136378506E+01  0.11419644983E+02  0.51100000000E-03 0.  1.
         11    1    3    3    0    0 -0.51958212118E+01  0.85446785113E+01  0.56864562270E+01  0.11504080737E+02  0.51100000000E-03 0. -1.
<mgrwt>
<rscale>  0 0.20001377E+02</rscale>
<asrwt>0</asrwt>
<pdfrwt beam="2">  1        4 0.90181783E-03 0.20001377E+02</pdfrwt>
<pdfrwt beam="1">  1       -4 0.26249092E-02 0.20001377E+02</pdfrwt>
<totfact> 0.12841142E+06</totfact>
</mgrwt>
</event>
<event>
 5    1  0.1154861E-006  0.2000043E+02  0.7818608E-02  0.1745320E+00
         -4   -1    0    0    0  501 -0.00000000000E+00  0.00000000000E+00  0.51434826474E+02  0.51454424245E+02  0.14200000000E+01 0. -1.
          4   -1    0    0  501    0  0.00000000000E+00 -0.00000000000E+00 -0.16623042300E+01  0.21862422906E+01  0.14200000000E+01 0.  1.
       1023    2    1    2    0    0  0.00000000000E+00  0.00000000000E+00  0.49772522244E+02  0.53640666536E+02  0.20000428393E+02 0.  0.
        -11    1    3    3    0    0  0.11184158354E+01  0.99373838898E+01  0.24771493977E+02  0.26713842230E+02  0.51100000000E-03 0. -1.
         11    1    3    3    0    0 -0.11184158354E+01 -0.99373838898E+01  0.25001028267E+02  0.26926824306E+02  0.51100000000E-03 0.  1.
<mgrwt>
<rscale>  0 0.20000428E+02</rscale>
<asrwt>0</asrwt>
<pdfrwt beam="2">  1        4 0.29754958E-03 0.20000428E+02</pdfrwt>
<pdfrwt beam="1">  1       -4 0.79548602E-02 0.20000428E+02</pdfrwt>
<totfact> 0.11369277E+06</totfact>
</mgrwt>
</event>
<event>
 5    1  0.1154861E-006  0.2000025E+02  0.7818608E-02  0.1745323E+00
         -4   -1    0    0    0  501 -0.00000000000E+00  0.00000000000E+00  0.80579933459E+01  0.81821547750E+01  0.14200000000E+01 0.  1.
          4   -1    0    0  501    0  0.00000000000E+00 -0.00000000000E+00 -0.12149633078E+02  0.12232333544E+02  0.14200000000E+01 0. -1.
       1023    2    1    2    0    0  0.00000000000E+00  0.00000000000E+00 -0.40916397324E+01  0.20414488319E+02  0.20000245439E+02 0.  0.
        -11    1    3    3    0    0 -0.49977382247E+01 -0.86616067914E+01 -0.20045525798E+01  0.10198973031E+02  0.51100000000E-03 0. -1.
         11    1    3    3    0    0  0.49977382247E+01  0.86616067914E+01 -0.20870871526E+01  0.10215515289E+02  0.51100000000E-03 0.  1.
<mgrwt>
<rscale>  0 0.20000245E+02</rscale>
<asrwt>0</asrwt>
<pdfrwt beam="2">  1        4 0.18850868E-02 0.20000245E+02</pdfrwt>
<pdfrwt beam="1">  1       -4 0.12556037E-02 0.20000245E+02</pdfrwt>
<totfact> 0.12989064E+06</totfact>
</mgrwt>
</event>
<event>
 5    1  0.1154861E-006  0.2000051E+02  0.7818608E-02  0.1745318E+00
         -4   -1    0    0    0  501 -0.00000000000E+00  0.00000000000E+00  0.11511242606E+03  0.11512118412E+03  0.14200000000E+01 0.  1.
          4   -1    0    0  501    0  0.00000000000E+00 -0.00000000000E+00 -0.27374780473E+00  0.14461458642E+01  0.14200000000E+01 0. -1.
       1023    2    1    2    0    0  0.00000000000E+00  0.00000000000E+00  0.11483867826E+03  0.11656732999E+03  0.20000509905E+02 0.  0.
        -11    1    3    3    0    0 -0.76699353299E+00  0.99707982659E+01  0.57426975881E+02  0.58291188496E+02  0.51100000000E-03 0.  1.
         11    1    3    3    0    0  0.76699353299E+00 -0.99707982659E+01  0.57411702375E+02  0.58276141491E+02  0.51100000000E-03 0. -1.
<mgrwt>
<rscale>  0 0.20000510E+02</rscale>
<asrwt>0</asrwt>
<pdfrwt beam="2">  1        4 0.13297317E-03 0.20000510E+02</pdfrwt>
<pdfrwt beam="1">  1       -4 0.17800467E-01 0.20000510E+02</pdfrwt>
<totfact> 0.93526563E+05</totfact>
</mgrwt>
</event>
<event>
 5    1  0.1154861E-006  0.2000012E+02  0.7818608E-02  0.1745326E+00
         -4   -1    0    0    0  501 -0.00000000000E+00  0.00000000000E+00  0.24826131407E+02  0.24866708681E+02  0.14200000000E+01 0. -1.
          4   -1    0    0  501    0  0.00000000000E+00 -0.00000000000E+00 -0.38575627207E+01  0.41106191923E+01  0.14200000000E+01 0.  1.
       1023    2    1    2    0    0  0.00000000000E+00  0.00000000000E+00  0.20968568686E+02  0.28977327873E+02  0.20000116448E+02 0.  0.
        -11    1    3    3    0    0 -0.87036471622E+00 -0.99620856629E+01  0.10515985142E+02  0.14511603263E+02  0.51100000000E-03 0. -1.
         11    1    3    3    0    0  0.87036471622E+00  0.99620856629E+01  0.10452583544E+02  0.14465724610E+02  0.51100000000E-03 0.  1.
<mgrwt>
<rscale>  0 0.20000116E+02</rscale>
<asrwt>0</asrwt>
<pdfrwt beam="2">  1        4 0.61605841E-03 0.20000116E+02</pdfrwt>
<pdfrwt beam="1">  1       -4 0.38419920E-02 0.20000116E+02</pdfrwt>
<totfact> 0.12509355E+06</totfact>
</mgrwt>
</event>
<event>
 5    1  0.1158320E-006  0.2000185E+02  0.7818608E-02  0.1745291E+00
          4   -1    0    0  501    0  0.00000000000E+00  0.00000000000E+00  0.73938351490E+01  0.75289573123E+01  0.14200000000E+01 0. -1.
         -4   -1    0    0    0  501 -0.00000000000E+00 -0.00000000000E+00 -0.13231341407E+02  0.13307321122E+02  0.14200000000E+01 0. -1.
       1023    2    1    2    0    0  0.00000000000E+00  0.00000000000E+00 -0.58375062582E+01  0.20836278434E+02  0.20001850406E+02 0.  0.
        -11    1    3    3    0    0  0.76640871169E+01  0.64239239320E+01 -0.30396760060E+01  0.10452017054E+02  0.51100000000E-03 0.  1.
         11    1    3    3    0    0 -0.76640871169E+01 -0.64239239320E+01 -0.27978302523E+01  0.10384261380E+02  0.51100000000E-03 0. -1.
<mgrwt>
<rscale>  0 0.20001850E+02</rscale>
<asrwt>0</asrwt>
<pdfrwt beam="1">  1        4 0.11537517E-02 0.20001850E+02</pdfrwt>
<pdfrwt beam="2">  1       -4 0.20518296E-02 0.20001850E+02</pdfrwt>
<totfact> 0.12961981E+06</totfact>
</mgrwt>
</event>
<event>
 4    1  0.1154861E-006  0.2004324E+02  0.7818608E-02  0.1744470E+00
          4   -1    0    0  501    0  0.00000000000E+00  0.00000000000E+00  0.30892841896E+02  0.30925460068E+02  0.14200000000E+01 0.  1.
         -4   -1    0    0    0  501 -0.00000000000E+00 -0.00000000000E+00 -0.30598722169E+01  0.33733096483E+01  0.14200000000E+01 0. -1.
        -11    1    1    2    0    0 -0.99595479986E+01  0.11094972667E+01  0.13751725853E+02  0.17015685256E+02  0.51100000000E-03 0.  1.
         11    1    1    2    0    0  0.99595479986E+01 -0.11094972667E+01  0.14081243826E+02  0.17283084460E+02  0.51100000000E-03 0. -1.
<mgrwt>
<rscale>  0 0.20043238E+02</rscale>
<asrwt>0</asrwt>
<pdfrwt beam="1">  1        4 0.47793648E-02 0.20043238E+02</pdfrwt>
<pdfrwt beam="2">  1       -4 0.49736921E-03 0.20043238E+02</pdfrwt>
<totfact> 0.12183179E+06</totfact>
</mgrwt>
</event>
<event>
 5    1  0.1154861E-006  0.2000334E+02  0.7818608E-02  0.1745262E+00
          4   -1    0    0  501    0  0.00000000000E+00  0.00000000000E+00  0.14229548375E+02  0.14300225416E+02  0.14200000000E+01 0.  1.
         -4   -1    0    0    0  501 -0.00000000000E+00 -0.00000000000E+00 -0.68690834408E+01  0.70143215864E+01  0.14200000000E+01 0. -1.
       1023    2    1    2    0    0  0.00000000000E+00  0.00000000000E+00  0.73604649342E+01  0.21314547003E+02  0.20003336469E+02 0.  0.
        -11    1    3    3    0    0  0.82933792684E+01 -0.55896985414E+01  0.35820067348E+01  0.10623353613E+02  0.51100000000E-03 0.  1.
         11    1    3    3    0    0 -0.82933792684E+01  0.55896985414E+01  0.37784581994E+01  0.10691193390E+02  0.51100000000E-03 0. -1.
<mgrwt>
<rscale>  0 0.20003336E+02</rscale>
<asrwt>0</asrwt>
<pdfrwt beam="1">  1        4 0.22057701E-02 0.20003336E+02</pdfrwt>
<pdfrwt beam="2">  1       -4 0.10733909E-02 0.20003336E+02</pdfrwt>
<totfact> 0.12931833E+06</totfact>
</mgrwt>
</event>
<event>
 5    1  0.1154861E-006  0.2000130E+02  0.7818608E-02  0.1745302E+00
          4   -1    0    0  501    0  0.00000000000E+00  0.00000000000E+00  0.59076701732E+02  0.59093765217E+02  0.14200000000E+01 0.  1.
         -4   -1    0    0    0  501 -0.00000000000E+00 -0.00000000000E+00 -0.13747329200E+01  0.19764338090E+01  0.14200000000E+01 0. -1.
       1023    2    1    2    0    0  0.00000000000E+00  0.00000000000E+00  0.57701968812E+02  0.61070199026E+02  0.20001300065E+02 0.  0.
        -11    1    3    3    0    0  0.49123550959E+01 -0.87109885546E+01  0.28915511711E+02  0.30596067916E+02  0.51100000000E-03 0. -1.
         11    1    3    3    0    0 -0.49123550959E+01  0.87109885546E+01  0.28786457101E+02  0.30474131110E+02  0.51100000000E-03 0.  1.
<mgrwt>
<rscale>  0 0.20001300E+02</rscale>
<asrwt>0</asrwt>
<pdfrwt beam="1">  1        4 0.91363214E-02 0.20001300E+02</pdfrwt>
<pdfrwt beam="2">  1       -4 0.25909461E-03 0.20001300E+02</pdfrwt>
<totfact> 0.11076508E+06</totfact>
</mgrwt>
</event>
<event>
 5    1  0.1180885E-006  0.2000227E+02  0.7818608E-02  0.1745283E+00
          4   -1    0    0  501    0  0.00000000000E+00  0.00000000000E+00  0.40611965472E+01  0.43022921094E+01  0.14200000000E+01 0.  1.
         -4   -1    0    0    0  501 -0.00000000000E+00 -0.00000000000E+00 -0.23655905108E+02  0.23698486164E+02  0.14200000000E+01 0. -1.
       1023    2    1    2    0    0  0.00000000000E+00  0.00000000000E+00 -0.19594708561E+02  0.28000778274E+02  0.20002274379E+02 0.  0.
        -11    1    3    3    0    0 -0.31418111857E+01 -0.94948257343E+01 -0.97873010096E+01  0.13993353943E+02  0.51100000000E-03 0. -1.
         11    1    3    3    0    0  0.31418111857E+01  0.94948257343E+01 -0.98074075511E+01  0.14007424331E+02  0.51100000000E-03 0.  1.
<mgrwt>
<rscale>  0 0.20002274E+02</rscale>
<asrwt>0</asrwt>
<pdfrwt beam="1">  1        4 0.64662076E-03 0.20002274E+02</pdfrwt>
<pdfrwt beam="2">  1       -4 0.36611912E-02 0.20002274E+02</pdfrwt>
<totfact> 0.12558604E+06</totfact>
</mgrwt>
</event>
<event>
 5    1  0.1154861E-006  0.2000032E+02  0.7818608E-02  0.1745322E+00
         -4   -1    0    0    0  501 -0.00000000000E+00  0.00000000000E+00  0.47834196729E+02  0.47855269059E+02  0.14200000000E+01 0. -1.
          4   -1    0    0  501    0  0.00000000000E+00 -0.00000000000E+00 -0.18253956333E+01  0.23126757702E+01  0.14200000000E+01 0.  1.
       1023    2    1    2    0    0  0.00000000000E+00  0.00000000000E+00  0.46008801096E+02  0.50167944829E+02  0.20000322750E+02 0.  0.
        -11    1    3    3    0    0  0.47286231489E+01 -0.88113754117E+01  0.23142103140E+02  0.25210258855E+02  0.51100000000E-03 0. -1.
         11    1    3    3    0    0 -0.47286231489E+01  0.88113754117E+01  0.22866697956E+02  0.24957685975E+02  0.51100000000E-03 0.  1.
<mgrwt>
<rscale>  0 0.20000323E+02</rscale>
<asrwt>0</asrwt>
<pdfrwt beam="2">  1        4 0.31993416E-03 0.20000323E+02</pdfrwt>
<pdfrwt beam="1">  1       -4 0.73982107E-02 0.20000323E+02</pdfrwt>
<totfact> 0.11512785E+06</totfact>
</mgrwt>
</event>
<event>
 5    1  0.1154861E-006  0.2000091E+02  0.7818608E-02  0.1745310E+00
         -4   -1    0    0    0  501 -0.00000000000E+00  0.00000000000E+00  0.49143597739E+02  0.49164108847E+02  0.14200000000E+01 0.  1.
          4   -1    0    0  501    0  0.00000000000E+00 -0.00000000000E+00 -0.17637596594E+01  0.22643427603E+01  0.14200000000E+01 0. -1.
       1023    2    1    2    0    0  0.00000000000E+00  0.00000000000E+00  0.47379838080E+02  0.51428451608E+02  0.20000914436E+02 0.  0.
        -11    1    3    3    0    0  0.84701442515E+01  0.53159867626E+01  0.23890504045E+02  0.25899020110E+02  0.51100000000E-03 0. -1.
         11    1    3    3    0    0 -0.84701442515E+01 -0.53159867626E+01  0.23489334035E+02  0.25529431497E+02  0.51100000000E-03 0.  1.
<mgrwt>
<rscale>  0 0.20000914E+02</rscale>
<asrwt>0</asrwt>
<pdfrwt beam="2">  1        4 0.31143181E-03 0.20000914E+02</pdfrwt>
<pdfrwt beam="1">  1       -4 0.76006377E-02 0.20000914E+02</pdfrwt>
<totfact> 0.11459501E+06</totfact>
</mgrwt>
</event>
<event>
 5    1  0.1154861E-006  0.2000049E+02  0.7818608E-02  0.1745318E+00
         -4   -1    0    0    0  501 -0.00000000000E+00  0.00000000000E+00  0.35544840130E+02  0.35573192995E+02  0.14200000000E+01 0.  1.
          4   -1    0    0  501    0  0.00000000000E+00 -0.00000000000E+00 -0.26028642778E+01  0.29650130604E+01  0.14200000000E+01 0. -1.
       1023    2    1    2    0    0  0.00000000000E+00  0.00000000000E+00  0.32941975853E+02  0.38538206056E+02  0.20000488817E+02 0.  0.
        -11    1    3    3    0    0 -0.47353124842E+01 -0.88079425372E+01  0.16388067643E+02  0.19198223809E+02  0.51100000000E-03 0.  1.
         11    1    3    3    0    0  0.47353124842E+01  0.88079425372E+01  0.16553908209E+02  0.19339982247E+02  0.51100000000E-03 0. -1.
<mgrwt>
<rscale>  0 0.20000489E+02</rscale>
<asrwt>0</asrwt>
<pdfrwt beam="2">  1        4 0.43047929E-03 0.20000489E+02</pdfrwt>
<pdfrwt beam="1">  1       -4 0.54984750E-02 0.20000489E+02</pdfrwt>
<totfact> 0.12030603E+06</totfact>
</mgrwt>
</event>
<event>
 5    1  0.1154861E-006  0.2000005E+02  0.7818608E-02  0.1745327E+00
         -4   -1    0    0    0  501 -0.00000000000E+00  0.00000000000E+00  0.11491646698E+02  0.11579047622E+02  0.14200000000E+01 0. -1.
          4   -1    0    0  501    0  0.00000000000E+00 -0.00000000000E+00 -0.85226789486E+01  0.86401653029E+01  0.14200000000E+01 0.  1.
       1023    2    1    2    0    0  0.00000000000E+00  0.00000000000E+00  0.29689677493E+01  0.20219212925E+02  0.20000045045E+02 0.  0.
        -11    1    3    3    0    0  0.57184155154E+01  0.82036670677E+01  0.14890972000E+01  0.10110283878E+02  0.51100000000E-03 0. -1.
         11    1    3    3    0    0 -0.57184155154E+01 -0.82036670677E+01  0.14798705493E+01  0.10108929047E+02  0.51100000000E-03 0.  1.
<mgrwt>
<rscale>  0 0.20000045E+02</rscale>
<asrwt>0</asrwt>
<pdfrwt beam="2">  1        4 0.13269419E-02 0.20000045E+02</pdfrwt>
<pdfrwt beam="1">  1       -4 0.17837062E-02 0.20000045E+02</pdfrwt>
<totfact> 0.13000938E+06</totfact>
</mgrwt>
</event>
<event>
 5    1  0.1154861E-006  0.2000093E+02  0.7818608E-02  0.1745310E+00
         -4   -1    0    0    0  501 -0.00000000000E+00  0.00000000000E+00  0.74168046345E+00  0.16020268131E+01  0.14200000000E+01 0.  1.
          4   -1    0    0  501    0  0.00000000000E+00 -0.00000000000E+00 -0.84474321105E+02  0.84486255250E+02  0.14200000000E+01 0. -1.
       1023    2    1    2    0    0  0.00000000000E+00  0.00000000000E+00 -0.83732640642E+02  0.86088282063E+02  0.20000929972E+02 0.  0.
        -11    1    3    3    0    0 -0.35481346101E+01  0.93496692907E+01 -0.42129005085E+02  0.43299637929E+02  0.51100000000E-03 0.  1.
         11    1    3    3    0    0  0.35481346101E+01 -0.93496692907E+01 -0.41603635556E+02  0.42788644134E+02  0.51100000000E-03 0. -1.
<mgrwt>
<rscale>  0 0.20000930E+02</rscale>
<asrwt>0</asrwt>
<pdfrwt beam="2">  1        4 0.13063143E-01 0.20000930E+02</pdfrwt>
<pdfrwt beam="1">  1       -4 0.18120325E-03 0.20000930E+02</pdfrwt>
<totfact> 0.10215551E+06</totfact>
</mgrwt>
</event>
<event>
 5    1  0.1154861E-006  0.2000008E+02  0.7818608E-02  0.1745327E+00
         -4   -1    0    0    0  501 -0.00000000000E+00  0.00000000000E+00  0.87897893769E+02  0.87909363147E+02  0.14200000000E+01 0. -1.
          4   -1    0    0  501    0  0.00000000000E+00 -0.00000000000E+00 -0.67847624410E+00  0.15737630107E+01  0.14200000000E+01 0.  1.
       1023    2    1    2    0    0  0.00000000000E+00  0.00000000000E+00  0.87219417524E+02  0.89483126158E+02  0.20000076842E+02 0.  0.
        -11    1    3    3    0    0 -0.99873708417E+01  0.50317131358E+00  0.43624178622E+02  0.44755666886E+02  0.51100000000E-03 0.  1.
         11    1    3    3    0    0  0.99873708417E+01 -0.50317131358E+00  0.43595238903E+02  0.44727459272E+02  0.51100000000E-03 0. -1.
<mgrwt>
<rscale>  0 0.20000077E+02</rscale>
<asrwt>0</asrwt>
<pdfrwt beam="2">  1        4 0.17413137E-03 0.20000077E+02</pdfrwt>
<pdfrwt beam="1">  1       -4 0.13592508E-01 0.20000077E+02</pdfrwt>
<totfact> 0.10111399E+06</totfact>
</mgrwt>
</event>
<event>
 5    1  0.1154861E-006  0.2000040E+02  0.7818608E-02  0.1745320E+00
          4   -1    0    0  501    0  0.00000000000E+00  0.00000000000E+00  0.85731426356E+00  0.16587307637E+01  0.14200000000E+01 0. -1.
         -4   -1    0    0    0  501 -0.00000000000E+00 -0.00000000000E+00 -0.78683182863E+02  0.78695995232E+02  0.14200000000E+01 0.  1.
       1023    2    1    2    0    0  0.00000000000E+00  0.00000000000E+00 -0.77825868600E+02  0.80354725995E+02  0.20000404158E+02 0.  0.
        -11    1    3    3    0    0 -0.97489529942E+01 -0.22275179015E+01 -0.38868762733E+02  0.40134581562E+02  0.51100000000E-03 0.  1.
         11    1    3    3    0    0  0.97489529942E+01  0.22275179015E+01 -0.38957105866E+02  0.40220144433E+02  0.51100000000E-03 0. -1.
<mgrwt>
<rscale>  0 0.20000404E+02</rscale>
<asrwt>0</asrwt>
<pdfrwt beam="1">  1        4 0.19452755E-03 0.20000404E+02</pdfrwt>
<pdfrwt beam="2">  1       -4 0.12167734E-01 0.20000404E+02</pdfrwt>
<totfact> 0.10399161E+06</totfact>
</mgrwt>
</event>
<event>
 5    1  0.1154861E-006  0.2000037E+02  0.7818608E-02  0.1745321E+00
         -4   -1    0    0    0  501 -0.00000000000E+00  0.00000000000E+00  0.28781891190E+02  0.28816898870E+02  0.14200000000E+01 0.  1.
          4   -1    0    0  501    0  0.00000000000E+00 -0.00000000000E+00 -0.32906706086E+01  0.35839800577E+01  0.14200000000E+01 0. -1.
       1023    2    1    2    0    0  0.00000000000E+00  0.00000000000E+00  0.25491220582E+02  0.32400878928E+02  0.20000365710E+02 0.  0.
        -11    1    3    3    0    0  0.90505286607E+01  0.42534143199E+01  0.12733655031E+02  0.16191033726E+02  0.51100000000E-03 0. -1.
         11    1    3    3    0    0 -0.90505286607E+01 -0.42534143199E+01  0.12757565550E+02  0.16209845201E+02  0.51100000000E-03 0.  1.
<mgrwt>
<rscale>  0 0.20000366E+02</rscale>
<asrwt>0</asrwt>
<pdfrwt beam="2">  1        4 0.53151219E-03 0.20000366E+02</pdfrwt>
<pdfrwt beam="1">  1       -4 0.44532383E-02 0.20000366E+02</pdfrwt>
<totfact> 0.12331582E+06</totfact>
</mgrwt>
</event>
<event>
 4    1  0.1154861E-006  0.2001988E+02  0.7818608E-02  0.1744933E+00
         -4   -1    0    0    0  501 -0.00000000000E+00  0.00000000000E+00  0.18630710090E+02  0.18684746679E+02  0.14200000000E+01 0. -1.
          4   -1    0    0  501    0  0.00000000000E+00 -0.00000000000E+00 -0.52213714245E+01  0.54110183471E+01  0.14200000000E+01 0.  1.
        -11    1    1    2    0    0 -0.45495960064E+01 -0.89111616670E+01  0.63410812485E+01  0.11845545059E+02  0.51100000000E-03 0.  1.
         11    1    1    2    0    0  0.45495960064E+01  0.89111616670E+01  0.70682574174E+01  0.12250219968E+02  0.51100000000E-03 0. -1.
<mgrwt>
<rscale>  0 0.20019878E+02</rscale>
<asrwt>0</asrwt>
<pdfrwt beam="2">  1        4 0.82203280E-03 0.20019878E+02</pdfrwt>
<pdfrwt beam="1">  1       -4 0.28850080E-02 0.20019878E+02</pdfrwt>
<totfact> 0.12750525E+06</totfact>
</mgrwt>
</event>
<event>
 5    1  0.1154861E-006  0.2000027E+02  0.7818608E-02  0.1745323E+00
         -4   -1    0    0    0  501 -0.00000000000E+00  0.00000000000E+00  0.10279721644E+03  0.10280702363E+03  0.14200000000E+01 0.  1.
          4   -1    0    0  501    0  0.00000000000E+00 -0.00000000000E+00 -0.43943366114E+00  0.14864393504E+01  0.14200000000E+01 0. -1.
       1023    2    1    2    0    0  0.00000000000E+00  0.00000000000E+00  0.10235778278E+03  0.10429346298E+03  0.20000268128E+02 0.  0.
        -11    1    3    3    0    0  0.32006237790E+01 -0.94740960809E+01  0.51251131306E+02  0.52217630639E+02  0.51100000000E-03 0.  1.
         11    1    3    3    0    0 -0.32006237790E+01  0.94740960809E+01  0.51106651474E+02  0.52075832343E+02  0.51100000000E-03 0. -1.
<mgrwt>
<rscale>  0 0.20000268E+02</rscale>
<asrwt>0</asrwt>
<pdfrwt beam="2">  1        4 0.14889846E-03 0.20000268E+02</pdfrwt>
<pdfrwt beam="1">  1       -4 0.15896251E-01 0.20000268E+02</pdfrwt>
<totfact> 0.96804172E+05</totfact>
</mgrwt>
</event>
<event>
 5    1  0.1154861E-006  0.2000067E+02  0.7818608E-02  0.1745315E+00
         -4   -1    0    0    0  501 -0.00000000000E+00  0.00000000000E+00  0.96682498545E+02  0.96692925930E+02  0.14200000000E+01 0. -1.
          4   -1    0    0  501    0  0.00000000000E+00 -0.00000000000E+00 -0.53152696625E+00  0.15162192836E+01  0.14200000000E+01 0.  1.
       1023    2    1    2    0    0  0.00000000000E+00  0.00000000000E+00  0.96150971579E+02  0.98209145213E+02  0.20000671690E+02 0.  0.
        -11    1    3    3    0    0  0.87049883554E+01 -0.49219118384E+01  0.48411341756E+02  0.49433390024E+02  0.51100000000E-03 0. -1.
         11    1    3    3    0    0 -0.87049883554E+01  0.49219118384E+01  0.47739629823E+02  0.48775755189E+02  0.51100000000E-03 0.  1.
<mgrwt>
<rscale>  0 0.20000672E+02</rscale>
<asrwt>0</asrwt>
<pdfrwt beam="2">  1        4 0.15832108E-03 0.20000672E+02</pdfrwt>
<pdfrwt beam="1">  1       -4 0.14950775E-01 0.20000672E+02</pdfrwt>
<totfact> 0.98518840E+05</totfact>
</mgrwt>
</event>
<event>
 4    1  0.1154861E-006  0.2002487E+02  0.7818608E-02  0.1744834E+00
         -4   -1    0    0    0  501 -0.00000000000E+00  0.00000000000E+00  0.45694538091E+01  0.47850086848E+01  0.14200000000E+01 0. -1.
          4   -1    0    0  501    0  0.00000000000E+00 -0.00000000000E+00 -0.21193518617E+02  0.21241036495E+02  0.14200000000E+01 0.  1.
        -11    1    1    2    0    0 -0.82036650186E+01 -0.57396662410E+01 -0.82202624058E+01  0.12954404756E+02  0.51100000000E-03 0. -1.
         11    1    1    2    0    0  0.82036650186E+01  0.57396662410E+01 -0.84038024023E+01  0.13071640424E+02  0.51100000000E-03 0.  1.
<mgrwt>
<rscale>  0 0.20024872E+02</rscale>
<asrwt>0</asrwt>
<pdfrwt beam="2">  1        4 0.32807776E-02 0.20024872E+02</pdfrwt>
<pdfrwt beam="1">  1       -4 0.72322927E-03 0.20024872E+02</pdfrwt>
<totfact> 0.12636722E+06</totfact>
</mgrwt>
</event>
<event>
 5    1  0.1154861E-006  0.2000621E+02  0.7818608E-02  0.1745205E+00
          4   -1    0    0  501    0  0.00000000000E+00  0.00000000000E+00  0.34094231699E+01  0.36933137359E+01  0.14200000000E+01 0. -1.
         -4   -1    0    0    0  501 -0.00000000000E+00 -0.00000000000E+00 -0.27872948959E+02  0.27909096790E+02  0.14200000000E+01 0.  1.
       1023    2    1    2    0    0  0.00000000000E+00  0.00000000000E+00 -0.24463525789E+02  0.31602410526E+02  0.20006205464E+02 0.  0.
        -11    1    3    3    0    0 -0.88859581312E+01 -0.45908307628E+01 -0.11976639141E+02  0.15603713160E+02  0.51100000000E-03 0.  1.
         11    1    3    3    0    0  0.88859581312E+01  0.45908307628E+01 -0.12486886648E+02  0.15998697366E+02  0.51100000000E-03 0. -1.
<mgrwt>
<rscale>  0 0.20006205E+02</rscale>
<asrwt>0</asrwt>
<pdfrwt beam="1">  1        4 0.54914500E-03 0.20006205E+02</pdfrwt>
<pdfrwt beam="2">  1       -4 0.43127642E-02 0.20006205E+02</pdfrwt>
<totfact> 0.12365028E+06</totfact>
</mgrwt>
</event>
<event>
 5    1  0.1170583E-006  0.2000058E+02  0.7818608E-02  0.1745316E+00
         -4   -1    0    0    0  501 -0.00000000000E+00  0.00000000000E+00  0.87981703624E+01  0.89120256803E+01  0.14200000000E+01 0.  1.
          4   -1    0    0  501    0  0.00000000000E+00 -0.00000000000E+00 -0.11134352684E+02  0.11224536057E+02  0.14200000000E+01 0. -1.
       1023    2    1    2    0    0  0.00000000000E+00  0.00000000000E+00 -0.23361823216E+01  0.20136561737E+02  0.20000584260E+02 0.  0.
        -11    1    3    3    0    0  0.31955045458E+01 -0.94759999921E+01 -0.11639066107E+01  0.10067795390E+02  0.51100000000E-03 0. -1.
         11    1    3    3    0    0 -0.31955045458E+01  0.94759999921E+01 -0.11722757109E+01  0.10068766347E+02  0.51100000000E-03 0.  1.
<mgrwt>
<rscale>  0 0.20000584E+02</rscale>
<asrwt>0</asrwt>
<pdfrwt beam="2">  1        4 0.17286726E-02 0.20000584E+02</pdfrwt>
<pdfrwt beam="1">  1       -4 0.13692600E-02 0.20000584E+02</pdfrwt>
<totfact> 0.13005155E+06</totfact>
</mgrwt>
</event>
<event>
 5    1  0.1154861E-006  0.2000009E+02  0.7818608E-02  0.1745326E+00
         -4   -1    0    0    0  501 -0.00000000000E+00  0.00000000000E+00  0.98710971998E+01  0.99727107613E+01  0.14200000000E+01 0. -1.
          4   -1    0    0  501    0  0.00000000000E+00 -0.00000000000E+00 -0.99264010550E+01  0.10027454209E+02  0.14200000000E+01 0.  1.
       1023    2    1    2    0    0  0.00000000000E+00  0.00000000000E+00 -0.55303855204E-01  0.20000164970E+02  0.20000088507E+02 0.  0.
        -11    1    3    3    0    0  0.75791834682E+01 -0.65235478355E+01 -0.13998734919E-01  0.10000044732E+02  0.51100000000E-03 0. -1.
         11    1    3    3    0    0 -0.75791834682E+01  0.65235478355E+01 -0.41305120285E-01  0.10000120238E+02  0.51100000000E-03 0.  1.
<mgrwt>
<rscale>  0 0.20000089E+02</rscale>
<asrwt>0</asrwt>
<pdfrwt beam="2">  1        4 0.15427284E-02 0.20000089E+02</pdfrwt>
<pdfrwt beam="1">  1       -4 0.15342201E-02 0.20000089E+02</pdfrwt>
<totfact> 0.13013918E+06</totfact>
</mgrwt>
</event>
<event>
 4    1  0.1166453E-006  0.2002457E+02  0.7818608E-02  0.1744840E+00
         -4   -1    0    0    0  501 -0.00000000000E+00  0.00000000000E+00  0.58480771737E+01  0.60180068652E+01  0.14200000000E+01 0.  1.
          4   -1    0    0  501    0  0.00000000000E+00 -0.00000000000E+00 -0.16695704853E+02  0.16755982828E+02  0.14200000000E+01 0. -1.
        -11    1    1    2    0    0 -0.16917330674E+01 -0.98560987070E+01 -0.48652001542E+01  0.11120917916E+02  0.51100000000E-03 0. -1.
         11    1    1    2    0    0  0.16917330674E+01  0.98560987070E+01 -0.59824275250E+01  0.11653071777E+02  0.51100000000E-03 0.  1.
<mgrwt>
<rscale>  0 0.20024574E+02</rscale>
<asrwt>0</asrwt>
<pdfrwt beam="2">  1        4 0.25862782E-02 0.20024574E+02</pdfrwt>
<pdfrwt beam="1">  1       -4 0.91741247E-03 0.20024574E+02</pdfrwt>
<totfact> 0.12819397E+06</totfact>
</mgrwt>
</event>
<event>
 5    1  0.1154861E-006  0.2000041E+02  0.7818608E-02  0.1745320E+00
          4   -1    0    0  501    0  0.00000000000E+00  0.00000000000E+00  0.17361645366E+01  0.22429149111E+01  0.14200000000E+01 0. -1.
         -4   -1    0    0    0  501 -0.00000000000E+00 -0.00000000000E+00 -0.49746760164E+02  0.49767022684E+02  0.14200000000E+01 0.  1.
       1023    2    1    2    0    0  0.00000000000E+00  0.00000000000E+00 -0.48010595628E+02  0.52009937595E+02  0.20000407899E+02 0.  0.
        -11    1    3    3    0    0  0.87611562921E+00  0.99616970294E+01 -0.24091249121E+02  0.26084310816E+02  0.51100000000E-03 0.  1.
         11    1    3    3    0    0 -0.87611562921E+00 -0.99616970294E+01 -0.23919346507E+02  0.25925626779E+02  0.51100000000E-03 0. -1.
<mgrwt>
<rscale>  0 0.20000408E+02</rscale>
<asrwt>0</asrwt>
<pdfrwt beam="1">  1        4 0.30764173E-03 0.20000408E+02</pdfrwt>
<pdfrwt beam="2">  1       -4 0.76938862E-02 0.20000408E+02</pdfrwt>
<totfact> 0.11436038E+06</totfact>
</mgrwt>
</event>
<event>
 5    1  0.1195905E-006  0.2000104E+02  0.7818608E-02  0.1745307E+00
         -4   -1    0    0    0  501 -0.00000000000E+00  0.00000000000E+00  0.28678417026E+02  0.28713550862E+02  0.14200000000E+01 0. -1.
          4   -1    0    0  501    0  0.00000000000E+00 -0.00000000000E+00 -0.33038275899E+01  0.35960640628E+01  0.14200000000E+01 0.  1.
       1023    2    1    2    0    0  0.00000000000E+00  0.00000000000E+00  0.25374589436E+02  0.32309614925E+02  0.20001035662E+02 0.  0.
        -11    1    3    3    0    0  0.54757572992E+01 -0.83681772769E+01  0.12676139129E+02  0.16146046340E+02  0.51100000000E-03 0. -1.
         11    1    3    3    0    0 -0.54757572992E+01  0.83681772769E+01  0.12698450307E+02  0.16163568585E+02  0.51100000000E-03 0.  1.
<mgrwt>
<rscale>  0 0.20001036E+02</rscale>
<asrwt>0</asrwt>
<pdfrwt beam="2">  1        4 0.53346350E-03 0.20001036E+02</pdfrwt>
<pdfrwt beam="1">  1       -4 0.44372465E-02 0.20001036E+02</pdfrwt>
<totfact> 0.12335384E+06</totfact>
</mgrwt>
</event>
<event>
 5    1  0.1154861E-006  0.2000149E+02  0.7818608E-02  0.1745299E+00
         -4   -1    0    0    0  501 -0.00000000000E+00  0.00000000000E+00  0.16777255740E+01  0.21979906964E+01  0.14200000000E+01 0.  1.
          4   -1    0    0  501    0  0.00000000000E+00 -0.00000000000E+00 -0.51079579909E+02  0.51099313926E+02  0.14200000000E+01 0. -1.
       1023    2    1    2    0    0  0.00000000000E+00  0.00000000000E+00 -0.49401854335E+02  0.53297304622E+02  0.20001486651E+02 0.  0.
        -11    1    3    3    0    0 -0.82426729423E+01  0.56629563468E+01 -0.24529578917E+02  0.26489827744E+02  0.51100000000E-03 0.  1.
         11    1    3    3    0    0  0.82426729423E+01 -0.56629563468E+01 -0.24872275418E+02  0.26807476878E+02  0.51100000000E-03 0. -1.
<mgrwt>
<rscale>  0 0.20001487E+02</rscale>
<asrwt>0</asrwt>
<pdfrwt beam="2">  1        4 0.78999343E-02 0.20001487E+02</pdfrwt>
<pdfrwt beam="1">  1       -4 0.29965006E-03 0.20001487E+02</pdfrwt>
<totfact> 0.11382030E+06</totfact>
</mgrwt>
</event>
<event>
 4    1  0.1154861E-006  0.2003115E+02  0.7818608E-02  0.1744709E+00
         -4   -1    0    0    0  501 -0.00000000000E+00  0.00000000000E+00  0.20945541038E+02  0.20993620206E+02  0.14200000000E+01 0. -1.
          4   -1    0    0  501    0  0.00000000000E+00 -0.00000000000E+00 -0.46290247918E+01  0.48419283889E+01  0.14200000000E+01 0.  1.
        -11    1    1    2    0    0  0.78248113302E+01  0.62512734140E+01  0.80615229618E+01  0.12856680924E+02  0.51100000000E-03 0.  1.
         11    1    1    2    0    0 -0.78248113302E+01 -0.62512734140E+01  0.82549932839E+01  0.12978867671E+02  0.51100000000E-03 0. -1.
<mgrwt>
<rscale>  0 0.20031147E+02</rscale>
<asrwt>0</asrwt>
<pdfrwt beam="2">  1        4 0.73223325E-03 0.20031147E+02</pdfrwt>
<pdfrwt beam="1">  1       -4 0.32424665E-02 0.20031147E+02</pdfrwt>
<totfact> 0.12639121E+06</totfact>
</mgrwt>
</event>
<event>
 5    1  0.1154861E-006  0.2000055E+02  0.7818608E-02  0.1745317E+00
          4   -1    0    0  501    0  0.00000000000E+00  0.00000000000E+00  0.14224132148E+01  0.20098903835E+01  0.14200000000E+01 0. -1.
         -4   -1    0    0    0  501 -0.00000000000E+00 -0.00000000000E+00 -0.57675401482E+02  0.57692879423E+02  0.14200000000E+01 0.  1.
       1023    2    1    2    0    0  0.00000000000E+00  0.00000000000E+00 -0.56252988267E+02  0.59702769806E+02  0.20000550832E+02 0.  0.
        -11    1    3    3    0    0  0.88150718837E+01  0.47222730825E+01 -0.28089600885E+02  0.29816623442E+02  0.51100000000E-03 0.  1.
         11    1    3    3    0    0 -0.88150718837E+01 -0.47222730825E+01 -0.28163387383E+02  0.29886146364E+02  0.51100000000E-03 0. -1.
<mgrwt>
<rscale>  0 0.20000551E+02</rscale>
<asrwt>0</asrwt>
<pdfrwt beam="1">  1        4 0.26536785E-03 0.20000551E+02</pdfrwt>
<pdfrwt beam="2">  1       -4 0.89196722E-02 0.20000551E+02</pdfrwt>
<totfact> 0.11129665E+06</totfact>
</mgrwt>
</event>
<event>
 5    1  0.1154861E-006  0.2000099E+02  0.7818608E-02  0.1745308E+00
         -4   -1    0    0    0  501 -0.00000000000E+00  0.00000000000E+00  0.10789528160E+03  0.10790462544E+03  0.14200000000E+01 0. -1.
          4   -1    0    0  501    0  0.00000000000E+00 -0.00000000000E+00 -0.36808645337E+00  0.14669313676E+01  0.14200000000E+01 0.  1.
       1023    2    1    2    0    0  0.00000000000E+00  0.00000000000E+00  0.10752719515E+03  0.10937155681E+03  0.20000993541E+02 0.  0.
        -11    1    3    3    0    0 -0.41518717833E+01  0.90979041647E+01  0.53796359520E+02  0.54717987877E+02  0.51100000000E-03 0.  1.
         11    1    3    3    0    0  0.41518717833E+01 -0.90979041647E+01  0.53730835627E+02  0.54653568931E+02  0.51100000000E-03 0. -1.
<mgrwt>
<rscale>  0 0.20000994E+02</rscale>
<asrwt>0</asrwt>
<pdfrwt beam="2">  1        4 0.14187400E-03 0.20000994E+02</pdfrwt>
<pdfrwt beam="1">  1       -4 0.16684517E-01 0.20000994E+02</pdfrwt>
<totfact> 0.95411970E+05</totfact>
</mgrwt>
</event>
<event>
 5    1  0.1154861E-006  0.2000656E+02  0.7818608E-02  0.1745198E+00
         -4   -1    0    0    0  501 -0.00000000000E+00  0.00000000000E+00  0.14018919480E+02  0.14090653050E+02  0.14200000000E+01 0. -1.
          4   -1    0    0  501    0  0.00000000000E+00 -0.00000000000E+00 -0.69762430614E+01  0.71192954182E+01  0.14200000000E+01 0.  1.
       1023    2    1    2    0    0  0.00000000000E+00  0.00000000000E+00  0.70426764185E+01  0.21209948468E+02  0.20006564495E+02 0.  0.
        -11    1    3    3    0    0  0.87569694689E+01  0.48308001489E+01  0.32976715347E+01  0.10530706632E+02  0.51100000000E-03 0. -1.
         11    1    3    3    0    0 -0.87569694689E+01 -0.48308001489E+01  0.37450048838E+01  0.10679241836E+02  0.51100000000E-03 0.  1.
<mgrwt>
<rscale>  0 0.20006564E+02</rscale>
<asrwt>0</asrwt>
<pdfrwt beam="2">  1        4 0.10897902E-02 0.20006564E+02</pdfrwt>
<pdfrwt beam="1">  1       -4 0.21732788E-02 0.20006564E+02</pdfrwt>
<totfact> 0.12933718E+06</totfact>
</mgrwt>
</event>
<event>
 4    1  0.1154861E-006  0.2001597E+02  0.7818608E-02  0.1745011E+00
          4   -1    0    0  501    0  0.00000000000E+00  0.00000000000E+00  0.38817399793E+01  0.41333164973E+01  0.14200000000E+01 0. -1.
         -4   -1    0    0    0  501 -0.00000000000E+00 -0.00000000000E+00 -0.24720316768E+02  0.24761067447E+02  0.14200000000E+01 0.  1.
        -11    1    1    2    0    0 -0.99874700116E+01  0.55323215931E+00 -0.99533899721E+01  0.14111186883E+02  0.51100000000E-03 0.  1.
         11    1    1    2    0    0  0.99874700116E+01 -0.55323215931E+00 -0.10885186817E+02  0.14783197061E+02  0.51100000000E-03 0. -1.
<mgrwt>
<rscale>  0 0.20015972E+02</rscale>
<asrwt>0</asrwt>
<pdfrwt beam="1">  1        4 0.61967749E-03 0.20015972E+02</pdfrwt>
<pdfrwt beam="2">  1       -4 0.38256123E-02 0.20015972E+02</pdfrwt>
<totfact> 0.12493601E+06</totfact>
</mgrwt>
</event>
<event>
 4    1  0.1154861E-006  0.2002190E+02  0.7818608E-02  0.1744893E+00
         -4   -1    0    0    0  501 -0.00000000000E+00  0.00000000000E+00  0.78880344097E+00  0.16243801490E+01  0.14200000000E+01 0.  1.
          4   -1    0    0  501    0  0.00000000000E+00 -0.00000000000E+00 -0.82215871884E+02  0.82228133809E+02  0.14200000000E+01 0. -1.
        -11    1    1    2    0    0  0.31055934558E+00 -0.99998830670E+01 -0.42194506348E+02  0.43364391782E+02  0.51100000000E-03 0.  1.
         11    1    1    2    0    0 -0.31055934558E+00  0.99998830670E+01 -0.39232562095E+02  0.40488122175E+02  0.51100000000E-03 0. -1.
<mgrwt>
<rscale>  0 0.20021904E+02</rscale>
<asrwt>0</asrwt>
<pdfrwt beam="2">  1        4 0.12713810E-01 0.20021904E+02</pdfrwt>
<pdfrwt beam="1">  1       -4 0.18657280E-03 0.20021904E+02</pdfrwt>
<totfact> 0.10264504E+06</totfact>
</mgrwt>
</event>
<event>
 5    1  0.1155905E-006  0.2000136E+02  0.7818608E-02  0.1745301E+00
          4   -1    0    0  501    0  0.00000000000E+00  0.00000000000E+00  0.11717112771E+01  0.18410071474E+01  0.14200000000E+01 0. -1.
         -4   -1    0    0    0  501 -0.00000000000E+00 -0.00000000000E+00 -0.65715596208E+02  0.65730936286E+02  0.14200000000E+01 0.  1.
       1023    2    1    2    0    0  0.00000000000E+00  0.00000000000E+00 -0.64543884931E+02  0.67571943433E+02  0.20001361387E+02 0.  0.
        -11    1    3    3    0    0  0.53999296909E+01 -0.84167024766E+01 -0.31879515973E+02  0.33411130782E+02  0.51100000000E-03 0.  1.
         11    1    3    3    0    0 -0.53999296909E+01  0.84167024766E+01 -0.32664368958E+02  0.34160812651E+02  0.51100000000E-03 0. -1.
<mgrwt>
<rscale>  0 0.20001361E+02</rscale>
<asrwt>0</asrwt>
<pdfrwt beam="1">  1        4 0.23292763E-03 0.20001361E+02</pdfrwt>
<pdfrwt beam="2">  1       -4 0.10162754E-01 0.20001361E+02</pdfrwt>
<totfact> 0.10835886E+06</totfact>
</mgrwt>
</event>
<event>
 5    1  0.1154861E-006  0.2000537E+02  0.7818608E-02  0.1745221E+00
         -4   -1    0    0    0  501 -0.00000000000E+00  0.00000000000E+00  0.11385122074E+03  0.11386007581E+03  0.14200000000E+01 0.  1.
          4   -1    0    0  501    0  0.00000000000E+00 -0.00000000000E+00 -0.29040677189E+00  0.14493916286E+01  0.14200000000E+01 0. -1.
       1023    2    1    2    0    0  0.00000000000E+00  0.00000000000E+00  0.11356081396E+03  0.11530946744E+03  0.20005369589E+02 0.  0.
        -11    1    3    3    0    0 -0.90502926690E+01  0.42597890885E+01  0.56838724548E+02  0.57712166906E+02  0.51100000000E-03 0.  1.
         11    1    3    3    0    0  0.90502926690E+01 -0.42597890885E+01  0.56722089416E+02  0.57597300531E+02  0.51100000000E-03 0. -1.
<mgrwt>
<rscale>  0 0.20005370E+02</rscale>
<asrwt>0</asrwt>
<pdfrwt beam="2">  1        4 0.13451185E-03 0.20005370E+02</pdfrwt>
<pdfrwt beam="1">  1       -4 0.17605401E-01 0.20005370E+02</pdfrwt>
<totfact> 0.93805670E+05</totfact>
</mgrwt>
</event>
<event>
 5    1  0.1205251E-006  0.2000130E+02  0.7818608E-02  0.1745302E+00
         -4   -1    0    0    0  501 -0.00000000000E+00  0.00000000000E+00  0.11332178950E+02  0.11420800312E+02  0.14200000000E+01 0.  1.
          4   -1    0    0  501    0  0.00000000000E+00 -0.00000000000E+00 -0.86444275404E+01  0.87602812456E+01  0.14200000000E+01 0. -1.
       1023    2    1    2    0    0  0.00000000000E+00  0.00000000000E+00  0.26877514100E+01  0.20181081557E+02  0.20001301087E+02 0.  0.
        -11    1    3    3    0    0  0.45798429948E+01  0.88902701484E+01  0.13780306349E+01  0.10095089591E+02  0.51100000000E-03 0. -1.
         11    1    3    3    0    0 -0.45798429948E+01 -0.88902701484E+01  0.13097207751E+01  0.10085991966E+02  0.51100000000E-03 0.  1.
<mgrwt>
<rscale>  0 0.20001301E+02</rscale>
<asrwt>0</asrwt>
<pdfrwt beam="2">  1        4 0.13456408E-02 0.20001301E+02</pdfrwt>
<pdfrwt beam="1">  1       -4 0.17591410E-02 0.20001301E+02</pdfrwt>
<totfact> 0.13001545E+06</totfact>
</mgrwt>
</event>
<event>
 5    1  0.1154861E-006  0.2000235E+02  0.7818608E-02  0.1745281E+00
         -4   -1    0    0    0  501 -0.00000000000E+00  0.00000000000E+00  0.16971689139E+01  0.22128674434E+01  0.14200000000E+01 0.  1.
          4   -1    0    0  501    0  0.00000000000E+00 -0.00000000000E+00 -0.50635458547E+02  0.50655365582E+02  0.14200000000E+01 0. -1.
       1023    2    1    2    0    0  0.00000000000E+00  0.00000000000E+00 -0.48938289633E+02  0.52868233026E+02  0.20002346638E+02 0.  0.
        -11    1    3    3    0    0 -0.89096320609E+01  0.45430872772E+01 -0.24342882307E+02  0.26317239687E+02  0.51100000000E-03 0.  1.
         11    1    3    3    0    0  0.89096320609E+01 -0.45430872772E+01 -0.24595407326E+02  0.26550993339E+02  0.51100000000E-03 0. -1.
<mgrwt>
<rscale>  0 0.20002347E+02</rscale>
<asrwt>0</asrwt>
<pdfrwt beam="2">  1        4 0.78312699E-02 0.20002347E+02</pdfrwt>
<pdfrwt beam="1">  1       -4 0.30230338E-03 0.20002347E+02</pdfrwt>
<totfact> 0.11398556E+06</totfact>
</mgrwt>
</event>
<event>
 5    1  0.1154861E-006  0.2000025E+02  0.7818608E-02  0.1745323E+00
         -4   -1    0    0    0  501 -0.00000000000E+00  0.00000000000E+00  0.11055873585E+03  0.11056785461E+03  0.14200000000E+01 0. -1.
          4   -1    0    0  501    0  0.00000000000E+00 -0.00000000000E+00 -0.33231407774E+00  0.14583664307E+01  0.14200000000E+01 0.  1.
       1023    2    1    2    0    0  0.00000000000E+00  0.00000000000E+00  0.11022642177E+03  0.11202622104E+03  0.20000253589E+02 0.  0.
        -11    1    3    3    0    0  0.73151116735E+01 -0.68183247016E+01  0.54854999570E+02  0.55759047594E+02  0.51100000000E-03 0.  1.
         11    1    3    3    0    0 -0.73151116735E+01  0.68183247016E+01  0.55371422200E+02  0.56267173443E+02  0.51100000000E-03 0. -1.
<mgrwt>
<rscale>  0 0.20000254E+02</rscale>
<asrwt>0</asrwt>
<pdfrwt beam="2">  1        4 0.13844609E-03 0.20000254E+02</pdfrwt>
<pdfrwt beam="1">  1       -4 0.17096358E-01 0.20000254E+02</pdfrwt>
<totfact> 0.94712040E+05</totfact>
</mgrwt>
</event>
<event>
 5    1  0.1154861E-006  0.2000038E+02  0.7818608E-02  0.1745320E+00
          4   -1    0    0  501    0  0.00000000000E+00  0.00000000000E+00  0.78880262397E+01  0.80148211433E+01  0.14200000000E+01 0. -1.
         -4   -1    0    0    0  501 -0.00000000000E+00 -0.00000000000E+00 -0.12409235566E+02  0.12490217265E+02  0.14200000000E+01 0.  1.
       1023    2    1    2    0    0  0.00000000000E+00  0.00000000000E+00 -0.45212093259E+01  0.20505038408E+02  0.20000381655E+02 0.  0.
        -11    1    3    3    0    0 -0.34000798886E+01 -0.94043857163E+01 -0.22896456558E+01  0.10258922528E+02  0.51100000000E-03 0. -1.
         11    1    3    3    0    0  0.34000798886E+01  0.94043857163E+01 -0.22315636701E+01  0.10246115880E+02  0.51100000000E-03 0.  1.
<mgrwt>
<rscale>  0 0.20000382E+02</rscale>
<asrwt>0</asrwt>
<pdfrwt beam="1">  1        4 0.12295253E-02 0.20000382E+02</pdfrwt>
<pdfrwt beam="2">  1       -4 0.19250960E-02 0.20000382E+02</pdfrwt>
<totfact> 0.12983518E+06</totfact>
</mgrwt>
</event>
<event>
 5    1  0.1154861E-006  0.2000014E+02  0.7818608E-02  0.1745325E+00
         -4   -1    0    0    0  501 -0.00000000000E+00  0.00000000000E+00  0.22225926828E+02  0.22271242070E+02  0.14200000000E+01 0. -1.
          4   -1    0    0  501    0  0.00000000000E+00 -0.00000000000E+00 -0.43359999756E+01  0.45625974826E+01  0.14200000000E+01 0.  1.
       1023    2    1    2    0    0  0.00000000000E+00  0.00000000000E+00  0.17889926852E+02  0.26833839553E+02  0.20000136559E+02 0.  0.
        -11    1    3    3    0    0 -0.59435917320E+01  0.80420625614E+01  0.89212488264E+01  0.13401109424E+02  0.51100000000E-03 0.  1.
         11    1    3    3    0    0  0.59435917320E+01 -0.80420625614E+01  0.89686780258E+01  0.13432730129E+02  0.51100000000E-03 0. -1.
<mgrwt>
<rscale>  0 0.20000137E+02</rscale>
<asrwt>0</asrwt>
<pdfrwt beam="2">  1        4 0.68799329E-03 0.20000137E+02</pdfrwt>
<pdfrwt beam="1">  1       -4 0.34402897E-02 0.20000137E+02</pdfrwt>
<totfact> 0.12624353E+06</totfact>
</mgrwt>
</event>
<event>
 5    1  0.1154861E-006  0.2000023E+02  0.7818608E-02  0.1745324E+00
         -4   -1    0    0    0  501 -0.00000000000E+00  0.00000000000E+00  0.85142918931E+02  0.85154759375E+02  0.14200000000E+01 0. -1.
          4   -1    0    0  501    0  0.00000000000E+00 -0.00000000000E+00 -0.72896224498E+00  0.15961785472E+01  0.14200000000E+01 0.  1.
       1023    2    1    2    0    0  0.00000000000E+00  0.00000000000E+00  0.84413956687E+02  0.86750937922E+02  0.20000228670E+02 0.  0.
        -11    1    3    3    0    0 -0.56336358015E+00  0.99842201198E+01  0.42276450551E+02  0.43443069659E+02  0.51100000000E-03 0.  1.
         11    1    3    3    0    0  0.56336358015E+00 -0.99842201198E+01  0.42137506136E+02  0.43307868263E+02  0.51100000000E-03 0. -1.
<mgrwt>
<rscale>  0 0.20000229E+02</rscale>
<asrwt>0</asrwt>
<pdfrwt beam="2">  1        4 0.17976781E-03 0.20000229E+02</pdfrwt>
<pdfrwt beam="1">  1       -4 0.13166529E-01 0.20000229E+02</pdfrwt>
<totfact> 0.10195569E+06</totfact>
</mgrwt>
</event>
<event>
 5    1  0.1154861E-006  0.2000039E+02  0.7818608E-02  0.1745320E+00
          4   -1    0    0  501    0  0.00000000000E+00  0.00000000000E+00  0.35743396502E+02  0.35771591990E+02  0.14200000000E+01 0. -1.
         -4   -1    0    0    0  501 -0.00000000000E+00 -0.00000000000E+00 -0.25863722276E+01  0.29505459324E+01  0.14200000000E+01 0.  1.
       1023    2    1    2    0    0  0.00000000000E+00  0.00000000000E+00  0.33157024275E+02  0.38722137923E+02  0.20000392660E+02 0.  0.
        -11    1    3    3    0    0 -0.47781708025E+01 -0.87846083382E+01  0.16461279944E+02  0.19260685281E+02  0.51100000000E-03 0. -1.
         11    1    3    3    0    0  0.47781708025E+01  0.87846083382E+01  0.16695744331E+02  0.19461452641E+02  0.51100000000E-03 0.  1.
<mgrwt>
<rscale>  0 0.20000393E+02</rscale>
<asrwt>0</asrwt>
<pdfrwt beam="1">  1        4 0.55291661E-02 0.20000393E+02</pdfrwt>
<pdfrwt beam="2">  1       -4 0.42808568E-03 0.20000393E+02</pdfrwt>
<totfact> 0.12022029E+06</totfact>
</mgrwt>
</event>
<event>
 5    1  0.1154861E-006  0.2000577E+02  0.7818608E-02  0.1745213E+00
         -4   -1    0    0    0  501 -0.00000000000E+00  0.00000000000E+00  0.23954460219E+02  0.23996511505E+02  0.14200000000E+01 0. -1.
          4   -1    0    0  501    0  0.00000000000E+00 -0.00000000000E+00 -0.40091518668E+01  0.42531986424E+01  0.14200000000E+01 0.  1.
       1023    2    1    2    0    0  0.00000000000E+00  0.00000000000E+00  0.19945308352E+02  0.28249710147E+02  0.20005769121E+02 0.  0.
        -11    1    3    3    0    0 -0.93084667604E+01 -0.36555912162E+01  0.10278129152E+02  0.14340531360E+02  0.51100000000E-03 0.  1.
         11    1    3    3    0    0  0.93084667604E+01  0.36555912162E+01  0.96671792008E+01  0.13909178787E+02  0.51100000000E-03 0. -1.
<mgrwt>
<rscale>  0 0.20005769E+02</rscale>
<asrwt>0</asrwt>
<pdfrwt beam="2">  1        4 0.63880014E-03 0.20005769E+02</pdfrwt>
<pdfrwt beam="1">  1       -4 0.37073091E-02 0.20005769E+02</pdfrwt>
<totfact> 0.12540831E+06</totfact>
</mgrwt>
</event>
<event>
 5    1  0.1154861E-006  0.2000026E+02  0.7818608E-02  0.1745323E+00
         -4   -1    0    0    0  501 -0.00000000000E+00  0.00000000000E+00  0.10636169673E+03  0.10637117529E+03  0.14200000000E+01 0.  1.
          4   -1    0    0  501    0  0.00000000000E+00 -0.00000000000E+00 -0.38901450049E+00  0.14723220713E+01  0.14200000000E+01 0. -1.
       1023    2    1    2    0    0  0.00000000000E+00  0.00000000000E+00  0.10597268223E+03  0.10784349736E+03  0.20000263571E+02 0.  0.
        -11    1    3    3    0    0  0.43054051407E+01  0.90257529791E+01  0.53221698877E+02  0.54153023571E+02  0.51100000000E-03 0. -1.
         11    1    3    3    0    0 -0.43054051407E+01 -0.90257529791E+01  0.52750983356E+02  0.53690473788E+02  0.51100000000E-03 0.  1.
<mgrwt>
<rscale>  0 0.20000264E+02</rscale>
<asrwt>0</asrwt>
<pdfrwt beam="2">  1        4 0.14390897E-03 0.20000264E+02</pdfrwt>
<pdfrwt beam="1">  1       -4 0.16447386E-01 0.20000264E+02</pdfrwt>
<totfact> 0.95831163E+05</totfact>
</mgrwt>
</event>
<event>
 5    1  0.1154861E-006  0.2000316E+02  0.7818608E-02  0.1745265E+00
         -4   -1    0    0    0  501 -0.00000000000E+00  0.00000000000E+00  0.68797557522E+00  0.15778816154E+01  0.14200000000E+01 0.  1.
          4   -1    0    0  501    0  0.00000000000E+00 -0.00000000000E+00 -0.87396742611E+02  0.87408277749E+02  0.14200000000E+01 0. -1.
       1023    2    1    2    0    0  0.00000000000E+00  0.00000000000E+00 -0.86708767036E+02  0.88986159365E+02  0.20003156689E+02 0.  0.
        -11    1    3    3    0    0 -0.22185810232E+01  0.97523810291E+01 -0.43456955145E+02  0.44593026229E+02  0.51100000000E-03 0. -1.
         11    1    3    3    0    0  0.22185810232E+01 -0.97523810291E+01 -0.43251811891E+02  0.44393133136E+02  0.51100000000E-03 0.  1.
<mgrwt>
<rscale>  0 0.20003157E+02</rscale>
<asrwt>0</asrwt>
<pdfrwt beam="2">  1        4 0.13514989E-01 0.20003157E+02</pdfrwt>
<pdfrwt beam="1">  1       -4 0.17518410E-03 0.20003157E+02</pdfrwt>
<totfact> 0.10123503E+06</totfact>
</mgrwt>
</event>
<event>
 5    1  0.1154861E-006  0.2000218E+02  0.7818608E-02  0.1745285E+00
          4   -1    0    0  501    0  0.00000000000E+00  0.00000000000E+00  0.11125193706E+03  0.11126099900E+03  0.14200000000E+01 0. -1.
         -4   -1    0    0    0  501 -0.00000000000E+00 -0.00000000000E+00 -0.32348905292E+00  0.14563808456E+01  0.14200000000E+01 0.  1.
       1023    2    1    2    0    0  0.00000000000E+00  0.00000000000E+00  0.11092844801E+03  0.11271737985E+03  0.20002178459E+02 0.  0.
        -11    1    3    3    0    0  0.99493308048E+01 -0.10091512266E+01  0.56136117045E+02  0.57019919386E+02  0.51100000000E-03 0. -1.
         11    1    3    3    0    0 -0.99493308048E+01  0.10091512266E+01  0.54792330960E+02  0.55697460462E+02  0.51100000000E-03 0.  1.
<mgrwt>
<rscale>  0 0.20002178E+02</rscale>
<asrwt>0</asrwt>
<pdfrwt beam="1">  1        4 0.17203537E-01 0.20002178E+02</pdfrwt>
<pdfrwt beam="2">  1       -4 0.13761005E-03 0.20002178E+02</pdfrwt>
<totfact> 0.94511736E+05</totfact>
</mgrwt>
</event>
<event>
 5    1  0.1154861E-006  0.2000497E+02  0.7818608E-02  0.1745229E+00
          4   -1    0    0  501    0  0.00000000000E+00  0.00000000000E+00  0.23677430718E+01  0.27609069622E+01  0.14200000000E+01 0. -1.
         -4   -1    0    0    0  501 -0.00000000000E+00 -0.00000000000E+00 -0.38608782364E+02  0.38634886769E+02  0.14200000000E+01 0.  1.
       1023    2    1    2    0    0  0.00000000000E+00  0.00000000000E+00 -0.36241039292E+02  0.41395793731E+02  0.20004969623E+02 0.  0.
        -11    1    3    3    0    0 -0.20776490170E+01 -0.97843258531E+01 -0.18106745536E+02  0.20685837958E+02  0.51100000000E-03 0. -1.
         11    1    3    3    0    0  0.20776490170E+01  0.97843258531E+01 -0.18134293756E+02  0.20709955773E+02  0.51100000000E-03 0.  1.
<mgrwt>
<rscale>  0 0.20004970E+02</rscale>
<asrwt>0</asrwt>
<pdfrwt beam="1">  1        4 0.39651960E-03 0.20004970E+02</pdfrwt>
<pdfrwt beam="2">  1       -4 0.59720637E-02 0.20004970E+02</pdfrwt>
<totfact> 0.11892155E+06</totfact>
</mgrwt>
</event>
<event>
 5    1  0.1173766E-006  0.2000224E+02  0.7818608E-02  0.1745284E+00
          4   -1    0    0  501    0  0.00000000000E+00  0.00000000000E+00  0.50291247626E+01  0.52257531397E+01  0.14200000000E+01 0.  1.
         -4   -1    0    0    0  501 -0.00000000000E+00 -0.00000000000E+00 -0.19284047025E+02  0.19336257902E+02  0.14200000000E+01 0.  1.
       1023    2    1    2    0    0  0.00000000000E+00  0.00000000000E+00 -0.14254922262E+02  0.24562011042E+02  0.20002239317E+02 0.  0.
        -11    1    3    3    0    0 -0.56159957574E+01 -0.82751974440E+01 -0.72060227664E+01  0.12326599915E+02  0.51100000000E-03 0.  1.
         11    1    3    3    0    0  0.56159957574E+01  0.82751974440E+01 -0.70488994957E+01  0.12235411127E+02  0.51100000000E-03 0. -1.
<mgrwt>
<rscale>  0 0.20002239E+02</rscale>
<asrwt>0</asrwt>
<pdfrwt beam="1">  1        4 0.79285299E-03 0.20002239E+02</pdfrwt>
<pdfrwt beam="2">  1       -4 0.29859179E-02 0.20002239E+02</pdfrwt>
<totfact> 0.12747209E+06</totfact>
</mgrwt>
</event>
<event>
 5    1  0.1184614E-006  0.2000149E+02  0.7818608E-02  0.1745298E+00
          4   -1    0    0  501    0  0.00000000000E+00  0.00000000000E+00  0.41813709820E+01  0.44159102447E+01  0.14200000000E+01 0.  1.
         -4   -1    0    0    0  501 -0.00000000000E+00 -0.00000000000E+00 -0.23009610676E+02  0.23053385509E+02  0.14200000000E+01 0. -1.
       1023    2    1    2    0    0  0.00000000000E+00  0.00000000000E+00 -0.18828239694E+02  0.27469295754E+02  0.20001489926E+02 0.  0.
        -11    1    3    3    0    0 -0.23993827373E+01  0.97084183302E+01 -0.93222424130E+01  0.13671672460E+02  0.51100000000E-03 0.  1.
         11    1    3    3    0    0  0.23993827373E+01 -0.97084183302E+01 -0.95059972808E+01  0.13797623294E+02  0.51100000000E-03 0. -1.
<mgrwt>
<rscale>  0 0.20001490E+02</rscale>
<asrwt>0</asrwt>
<pdfrwt beam="1">  1        4 0.66469663E-03 0.20001490E+02</pdfrwt>
<pdfrwt beam="2">  1       -4 0.35613488E-02 0.20001490E+02</pdfrwt>
<totfact> 0.12588184E+06</totfact>
</mgrwt>
</event>
<event>
 4    1  0.1154861E-006  0.2015052E+02  0.7818608E-02  0.1742351E+00
          4   -1    0    0  501    0  0.00000000000E+00  0.00000000000E+00  0.33105462461E+02  0.33135902655E+02  0.14200000000E+01 0.  1.
         -4   -1    0    0    0  501 -0.00000000000E+00 -0.00000000000E+00 -0.28682302797E+01  0.32004913587E+01  0.14200000000E+01 0. -1.
        -11    1    1    2    0    0 -0.35041750335E+01 -0.94459691590E+01  0.14987912248E+02  0.18059432157E+02  0.51100000000E-03 0.  1.
         11    1    1    2    0    0  0.35041750335E+01  0.94459691590E+01  0.15249319933E+02  0.18276961856E+02  0.51100000000E-03 0. -1.
<mgrwt>
<rscale>  0 0.20150517E+02</rscale>
<asrwt>0</asrwt>
<pdfrwt beam="1">  1        4 0.51210484E-02 0.20150517E+02</pdfrwt>
<pdfrwt beam="2">  1       -4 0.46916627E-03 0.20150517E+02</pdfrwt>
<totfact> 0.11953439E+06</totfact>
</mgrwt>
</event>
<event>
 5    1  0.1154861E-006  0.2000040E+02  0.7818608E-02  0.1745320E+00
          4   -1    0    0  501    0  0.00000000000E+00  0.00000000000E+00  0.14897365185E+02  0.14964888554E+02  0.14200000000E+01 0.  1.
         -4   -1    0    0    0  501 -0.00000000000E+00 -0.00000000000E+00 -0.65539552502E+01  0.67060218775E+01  0.14200000000E+01 0. -1.
       1023    2    1    2    0    0  0.00000000000E+00  0.00000000000E+00  0.83434099343E+01  0.21670910432E+02  0.20000396736E+02 0.  0.
        -11    1    3    3    0    0 -0.93117760638E+01  0.36461492417E+01  0.41930860114E+01  0.10843687026E+02  0.51100000000E-03 0.  1.
         11    1    3    3    0    0  0.93117760638E+01 -0.36461492417E+01  0.41503239229E+01  0.10827223406E+02  0.51100000000E-03 0. -1.
<mgrwt>
<rscale>  0 0.20000397E+02</rscale>
<asrwt>0</asrwt>
<pdfrwt beam="1">  1        4 0.23087938E-02 0.20000397E+02</pdfrwt>
<pdfrwt beam="2">  1       -4 0.10251924E-02 0.20000397E+02</pdfrwt>
<totfact> 0.12914855E+06</totfact>
</mgrwt>
</event>
<event>
 5    1  0.1173076E-006  0.2000055E+02  0.7818608E-02  0.1745317E+00
         -4   -1    0    0    0  501 -0.00000000000E+00  0.00000000000E+00  0.10597679154E+02  0.10692389979E+02  0.14200000000E+01 0. -1.
          4   -1    0    0  501    0  0.00000000000E+00 -0.00000000000E+00 -0.92454109906E+01  0.93538240515E+01  0.14200000000E+01 0.  1.
       1023    2    1    2    0    0  0.00000000000E+00  0.00000000000E+00  0.13522681636E+01  0.20046214030E+02  0.20000551686E+02 0.  0.
        -11    1    3    3    0    0  0.97500711644E+01 -0.22227176707E+01  0.64206938243E+00  0.10020809094E+02  0.51100000000E-03 0.  1.
         11    1    3    3    0    0 -0.97500711644E+01  0.22227176707E+01  0.71019878120E+00  0.10025404936E+02  0.51100000000E-03 0. -1.
<mgrwt>
<rscale>  0 0.20000552E+02</rscale>
<asrwt>0</asrwt>
<pdfrwt beam="2">  1        4 0.14379958E-02 0.20000552E+02</pdfrwt>
<pdfrwt beam="1">  1       -4 0.16460371E-02 0.20000552E+02</pdfrwt>
<totfact> 0.13010570E+06</totfact>
</mgrwt>
</event>
<event>
 5    1  0.1154861E-006  0.2000764E+02  0.7818608E-02  0.1745176E+00
         -4   -1    0    0    0  501 -0.00000000000E+00  0.00000000000E+00  0.11610687133E+03  0.11611555438E+03  0.14200000000E+01 0. -1.
          4   -1    0    0  501    0  0.00000000000E+00 -0.00000000000E+00 -0.26235970458E+00  0.14440334534E+01  0.14200000000E+01 0. -1.
       1023    2    1    2    0    0  0.00000000000E+00  0.00000000000E+00  0.11584451162E+03  0.11755958784E+03  0.20007644012E+02 0.  0.
        -11    1    3    3    0    0 -0.78890150719E+01 -0.61514021817E+01  0.57993461287E+02  0.58849960577E+02  0.51100000000E-03 0.  1.
         11    1    3    3    0    0  0.78890150719E+01  0.61514021817E+01  0.57851050338E+02  0.58709627260E+02  0.51100000000E-03 0. -1.
<mgrwt>
<rscale>  0 0.20007644E+02</rscale>
<asrwt>0</asrwt>
<pdfrwt beam="2">  1        4 0.13192893E-03 0.20007644E+02</pdfrwt>
<pdfrwt beam="1">  1       -4 0.17954162E-01 0.20007644E+02</pdfrwt>
<totfact> 0.93206181E+05</totfact>
</mgrwt>
</event>
<event>
 5    1  0.1172994E-006  0.2000083E+02  0.7818608E-02  0.1745312E+00
          4   -1    0    0  501    0  0.00000000000E+00  0.00000000000E+00  0.65814408662E+01  0.67328867416E+01  0.14200000000E+01 0.  1.
         -4   -1    0    0    0  501 -0.00000000000E+00 -0.00000000000E+00 -0.14836928864E+02  0.14904726033E+02  0.14200000000E+01 0. -1.
       1023    2    1    2    0    0  0.00000000000E+00  0.00000000000E+00 -0.82554879977E+01  0.21637612774E+02  0.20000830095E+02 0.  0.
        -11    1    3    3    0    0  0.76570779656E+01 -0.64324142522E+01 -0.41697100174E+01  0.10834817856E+02  0.51100000000E-03 0.  1.
         11    1    3    3    0    0 -0.76570779656E+01  0.64324142522E+01 -0.40857779803E+01  0.10802794918E+02  0.51100000000E-03 0. -1.
<mgrwt>
<rscale>  0 0.20000830E+02</rscale>
<asrwt>0</asrwt>
<pdfrwt beam="1">  1        4 0.10293942E-02 0.20000830E+02</pdfrwt>
<pdfrwt beam="2">  1       -4 0.22994693E-02 0.20000830E+02</pdfrwt>
<totfact> 0.12916228E+06</totfact>
</mgrwt>
</event>
<event>
 5    1  0.1193573E-006  0.2000099E+02  0.7818608E-02  0.1745308E+00
         -4   -1    0    0    0  501 -0.00000000000E+00  0.00000000000E+00  0.17659004488E+02  0.17716005179E+02  0.14200000000E+01 0. -1.
          4   -1    0    0  501    0  0.00000000000E+00 -0.00000000000E+00 -0.55070590455E+01  0.56871872952E+01  0.14200000000E+01 0.  1.
       1023    2    1    2    0    0  0.00000000000E+00  0.00000000000E+00  0.12151945442E+02  0.23403192474E+02  0.20000990974E+02 0.  0.
        -11    1    3    3    0    0  0.44565056101E+01 -0.89526021566E+01  0.60531003740E+01  0.11689719929E+02  0.51100000000E-03 0. -1.
         11    1    3    3    0    0 -0.44565056101E+01  0.89526021566E+01  0.60988450681E+01  0.11713472545E+02  0.51100000000E-03 0.  1.
<mgrwt>
<rscale>  0 0.20000991E+02</rscale>
<asrwt>0</asrwt>
<pdfrwt beam="2">  1        4 0.86548056E-03 0.20000991E+02</pdfrwt>
<pdfrwt beam="1">  1       -4 0.27350105E-02 0.20000991E+02</pdfrwt>
<totfact> 0.12814276E+06</totfact>
</mgrwt>
</event>
<event>
 5    1  0.1154861E-006  0.2000027E+02  0.7818608E-02  0.1745323E+00
         -4   -1    0    0    0  501 -0.00000000000E+00  0.00000000000E+00  0.64888944093E+02  0.64904479549E+02  0.14200000000E+01 0.  1.
          4   -1    0    0  501    0  0.00000000000E+00 -0.00000000000E+00 -0.11949008625E+01  0.18558523840E+01  0.14200000000E+01 0. -1.
       1023    2    1    2    0    0  0.00000000000E+00  0.00000000000E+00  0.63694043231E+02  0.66760331933E+02  0.20000269417E+02 0.  0.
        -11    1    3    3    0    0  0.40321126524E+01  0.91512099266E+01  0.31810706809E+02  0.33345519092E+02  0.51100000000E-03 0. -1.
         11    1    3    3    0    0 -0.40321126524E+01 -0.91512099266E+01  0.31883336422E+02  0.33414812841E+02  0.51100000000E-03 0.  1.
<mgrwt>
<rscale>  0 0.20000269E+02</rscale>
<asrwt>0</asrwt>
<pdfrwt beam="2">  1        4 0.23586836E-03 0.20000269E+02</pdfrwt>
<pdfrwt beam="1">  1       -4 0.10034952E-01 0.20000269E+02</pdfrwt>
<totfact> 0.10866394E+06</totfact>
</mgrwt>
</event>
<event>
 5    1  0.1163166E-006  0.2000214E+02  0.7818608E-02  0.1745285E+00
          4   -1    0    0  501    0  0.00000000000E+00  0.00000000000E+00  0.14134734206E+02  0.14205882975E+02  0.14200000000E+01 0. -1.
         -4   -1    0    0    0  501 -0.00000000000E+00 -0.00000000000E+00 -0.69150449929E+01  0.70593375931E+01  0.14200000000E+01 0.  1.
       1023    2    1    2    0    0  0.00000000000E+00  0.00000000000E+00  0.72196892136E+01  0.21265220568E+02  0.20002142222E+02 0.  0.
        -11    1    3    3    0    0 -0.97144029951E+01  0.23773505764E+01  0.36112660799E+01  0.10633092884E+02  0.51100000000E-03 0.  1.
         11    1    3    3    0    0  0.97144029951E+01 -0.23773505764E+01  0.36084231338E+01  0.10632127684E+02  0.51100000000E-03 0. -1.
<mgrwt>
<rscale>  0 0.20002142E+02</rscale>
<asrwt>0</asrwt>
<pdfrwt beam="1">  1        4 0.21911468E-02 0.20002142E+02</pdfrwt>
<pdfrwt beam="2">  1       -4 0.10804255E-02 0.20002142E+02</pdfrwt>
<totfact> 0.12936305E+06</totfact>
</mgrwt>
</event>
<event>
 5    1  0.1201580E-006  0.2000111E+02  0.7818608E-02  0.1745306E+00
         -4   -1    0    0    0  501 -0.00000000000E+00  0.00000000000E+00  0.57949368841E+01  0.59663802670E+01  0.14200000000E+01 0. -1.
          4   -1    0    0  501    0  0.00000000000E+00 -0.00000000000E+00 -0.16804966206E+02  0.16864853667E+02  0.14200000000E+01 0. -1.
       1023    2    1    2    0    0  0.00000000000E+00  0.00000000000E+00 -0.11010029322E+02  0.22831233934E+02  0.20001112400E+02 0.  0.
        -11    1    3    3    0    0  0.66221716751E+01  0.74937598422E+01 -0.55496614725E+01  0.11437147240E+02  0.51100000000E-03 0.  1.
         11    1    3    3    0    0 -0.66221716751E+01 -0.74937598422E+01 -0.54603678498E+01  0.11394086694E+02  0.51100000000E-03 0. -1.
<mgrwt>
<rscale>  0 0.20001112E+02</rscale>
<asrwt>0</asrwt>
<pdfrwt beam="2">  1        4 0.26031741E-02 0.20001112E+02</pdfrwt>
<pdfrwt beam="1">  1       -4 0.90932344E-03 0.20001112E+02</pdfrwt>
<totfact> 0.12846791E+06</totfact>
</mgrwt>
</event>
<event>
 5    1  0.1154861E-006  0.2000034E+02  0.7818608E-02  0.1745321E+00
         -4   -1    0    0    0  501 -0.00000000000E+00  0.00000000000E+00  0.43163597538E+01  0.45439367870E+01  0.14200000000E+01 0. -1.
          4   -1    0    0  501    0  0.00000000000E+00 -0.00000000000E+00 -0.22322665535E+02  0.22367784794E+02  0.14200000000E+01 0.  1.
       1023    2    1    2    0    0  0.00000000000E+00  0.00000000000E+00 -0.18006305781E+02  0.26911721581E+02  0.20000342761E+02 0.  0.
        -11    1    3    3    0    0  0.27823893003E+01 -0.96052895277E+01 -0.90196463097E+01  0.13466896337E+02  0.51100000000E-03 0.  1.
         11    1    3    3    0    0 -0.27823893003E+01  0.96052895277E+01 -0.89866594712E+01  0.13444825244E+02  0.51100000000E-03 0. -1.
<mgrwt>
<rscale>  0 0.20000343E+02</rscale>
<asrwt>0</asrwt>
<pdfrwt beam="2">  1        4 0.34552328E-02 0.20000343E+02</pdfrwt>
<pdfrwt beam="1">  1       -4 0.68503200E-03 0.20000343E+02</pdfrwt>
<totfact> 0.12619852E+06</totfact>
</mgrwt>
</event>
<event>
 5    1  0.1154861E-006  0.2000077E+02  0.7818608E-02  0.1745313E+00
         -4   -1    0    0    0  501 -0.00000000000E+00  0.00000000000E+00  0.26767659764E+01  0.30300950632E+01  0.14200000000E+01 0.  1.
          4   -1    0    0  501    0  0.00000000000E+00 -0.00000000000E+00 -0.34679488374E+02  0.34708548138E+02  0.14200000000E+01 0. -1.
       1023    2    1    2    0    0  0.00000000000E+00  0.00000000000E+00 -0.32002722397E+02  0.37738643201E+02  0.20000773731E+02 0.  0.
        -11    1    3    3    0    0 -0.50590393073E+01 -0.86261923086E+01 -0.15903959361E+02  0.18786723932E+02  0.51100000000E-03 0.  1.
         11    1    3    3    0    0  0.50590393073E+01  0.86261923086E+01 -0.16098763036E+02  0.18951919270E+02  0.51100000000E-03 0. -1.
<mgrwt>
<rscale>  0 0.20000774E+02</rscale>
<asrwt>0</asrwt>
<pdfrwt beam="2">  1        4 0.53647201E-02 0.20000774E+02</pdfrwt>
<pdfrwt beam="1">  1       -4 0.44122470E-03 0.20000774E+02</pdfrwt>
<totfact> 0.12068246E+06</totfact>
</mgrwt>
</event>
<event>
 4    1  0.1154861E-006  0.2004081E+02  0.7818608E-02  0.1744518E+00
         -4   -1    0    0    0  501 -0.00000000000E+00  0.00000000000E+00  0.66103276042E+02  0.66118526174E+02  0.14200000000E+01 0.  1.
          4   -1    0    0  501    0  0.00000000000E+00 -0.00000000000E+00 -0.11682154726E+01  0.18387842153E+01  0.14200000000E+01 0. -1.
        -11    1    1    2    0    0 -0.97436867219E+01  0.23301660285E+01  0.31794607605E+02  0.33335659250E+02  0.51100000000E-03 0.  1.
         11    1    1    2    0    0  0.97436867219E+01 -0.23301660285E+01  0.33140452964E+02  0.34621651139E+02  0.51100000000E-03 0. -1.
<mgrwt>
<rscale>  0 0.20040807E+02</rscale>
<asrwt>0</asrwt>
<pdfrwt beam="2">  1        4 0.23248073E-03 0.20040807E+02</pdfrwt>
<pdfrwt beam="1">  1       -4 0.10222491E-01 0.20040807E+02</pdfrwt>
<totfact> 0.10779297E+06</totfact>
</mgrwt>
</event>
<event>
 5    1  0.1154861E-006  0.2000573E+02  0.7818608E-02  0.1745214E+00
          4   -1    0    0  501    0  0.00000000000E+00  0.00000000000E+00  0.53322979926E+01  0.55181339130E+01  0.14200000000E+01 0. -1.
         -4   -1    0    0    0  501 -0.00000000000E+00 -0.00000000000E+00 -0.18229091520E+02  0.18284315071E+02  0.14200000000E+01 0.  1.
       1023    2    1    2    0    0  0.00000000000E+00  0.00000000000E+00 -0.12896793527E+02  0.23802448984E+02  0.20005731538E+02 0.  0.
        -11    1    3    3    0    0 -0.14172343334E+01 -0.99015817988E+01 -0.65510774413E+01  0.11956859587E+02  0.51100000000E-03 0. -1.
         11    1    3    3    0    0  0.14172343334E+01  0.99015817988E+01 -0.63457160858E+01  0.11845589398E+02  0.51100000000E-03 0.  1.
<mgrwt>
<rscale>  0 0.20005732E+02</rscale>
<asrwt>0</asrwt>
<pdfrwt beam="1">  1        4 0.83889658E-03 0.20005732E+02</pdfrwt>
<pdfrwt beam="2">  1       -4 0.28230186E-02 0.20005732E+02</pdfrwt>
<totfact> 0.12785452E+06</totfact>
</mgrwt>
</event>
<event>
 5    1  0.1154861E-006  0.2000037E+02  0.7818608E-02  0.1745321E+00
         -4   -1    0    0    0  501 -0.00000000000E+00  0.00000000000E+00  0.24906437803E+02  0.24946884455E+02  0.14200000000E+01 0.  1.
          4   -1    0    0  501    0  0.00000000000E+00 -0.00000000000E+00 -0.38444337222E+01  0.40983009460E+01  0.14200000000E+01 0. -1.
       1023    2    1    2    0    0  0.00000000000E+00  0.00000000000E+00  0.21062004080E+02  0.29045185401E+02  0.20000369474E+02 0.  0.
        -11    1    3    3    0    0 -0.96380066784E+01 -0.26665933806E+01  0.10592641113E+02  0.14567290036E+02  0.51100000000E-03 0.  1.
         11    1    3    3    0    0  0.96380066784E+01  0.26665933806E+01  0.10469362967E+02  0.14477895365E+02  0.51100000000E-03 0. -1.
<mgrwt>
<rscale>  0 0.20000369E+02</rscale>
<asrwt>0</asrwt>
<pdfrwt beam="2">  1        4 0.61409088E-03 0.20000369E+02</pdfrwt>
<pdfrwt beam="1">  1       -4 0.38543992E-02 0.20000369E+02</pdfrwt>
<totfact> 0.12505445E+06</totfact>
</mgrwt>
</event>
<event>
 5    1  0.1177576E-006  0.2000089E+02  0.7818608E-02  0.1745310E+00
         -4   -1    0    0    0  501 -0.00000000000E+00  0.00000000000E+00  0.72508415152E+01  0.73885792056E+01  0.14200000000E+01 0. -1.
          4   -1    0    0  501    0  0.00000000000E+00 -0.00000000000E+00 -0.13487593616E+02  0.13562137794E+02  0.14200000000E+01 0.  1.
       1023    2    1    2    0    0  0.00000000000E+00  0.00000000000E+00 -0.62367521007E+01  0.20950717000E+02  0.20000886631E+02 0.  0.
        -11    1    3    3    0    0 -0.99767264198E+01 -0.68758005107E+00 -0.31519915960E+01  0.10485365404E+02  0.51100000000E-03 0. -1.
         11    1    3    3    0    0  0.99767264198E+01  0.68758005107E+00 -0.30847605046E+01  0.10465351595E+02  0.51100000000E-03 0.  1.
<mgrwt>
<rscale>  0 0.20000887E+02</rscale>
<asrwt>0</asrwt>
<pdfrwt beam="2">  1        4 0.20913438E-02 0.20000887E+02</pdfrwt>
<pdfrwt beam="1">  1       -4 0.11318435E-02 0.20000887E+02</pdfrwt>
<totfact> 0.12956488E+06</totfact>
</mgrwt>
</event>
<event>
 5    1  0.1154861E-006  0.2000038E+02  0.7818608E-02  0.1745321E+00
          4   -1    0    0  501    0  0.00000000000E+00  0.00000000000E+00  0.74732004431E+00  0.16046455212E+01  0.14200000000E+01 0.  1.
         -4   -1    0    0    0  501 -0.00000000000E+00 -0.00000000000E+00 -0.84172999473E+02  0.84184976333E+02  0.14200000000E+01 0. -1.
       1023    2    1    2    0    0  0.00000000000E+00  0.00000000000E+00 -0.83425679428E+02  0.85789621854E+02  0.20000380742E+02 0.  0.
        -11    1    3    3    0    0 -0.24073949952E+01 -0.97060104456E+01 -0.41540313787E+02  0.42727038971E+02  0.51100000000E-03 0. -1.
         11    1    3    3    0    0  0.24073949952E+01  0.97060104456E+01 -0.41885365641E+02  0.43062582883E+02  0.51100000000E-03 0.  1.
<mgrwt>
<rscale>  0 0.20000381E+02</rscale>
<asrwt>0</asrwt>
<pdfrwt beam="1">  1        4 0.18184179E-03 0.20000381E+02</pdfrwt>
<pdfrwt beam="2">  1       -4 0.13016557E-01 0.20000381E+02</pdfrwt>
<totfact> 0.10225472E+06</totfact>
</mgrwt>
</event>
<event>
 5    1  0.1154861E-006  0.2000030E+02  0.7818608E-02  0.1745322E+00
          4   -1    0    0  501    0  0.00000000000E+00  0.00000000000E+00  0.17691793962E+01  0.22685668903E+01  0.14200000000E+01 0.  1.
         -4   -1    0    0    0  501 -0.00000000000E+00 -0.00000000000E+00 -0.49023143015E+02  0.49043704500E+02  0.14200000000E+01 0.  1.
       1023    2    1    2    0    0  0.00000000000E+00  0.00000000000E+00 -0.47253963619E+02  0.51312271391E+02  0.20000302936E+02 0.  0.
        -11    1    3    3    0    0 -0.82891676571E+01 -0.55938644732E+01 -0.23723282585E+02  0.25744820005E+02  0.51100000000E-03 0.  1.
         11    1    3    3    0    0  0.82891676571E+01  0.55938644732E+01 -0.23530681034E+02  0.25567451386E+02  0.51100000000E-03 0. -1.
<mgrwt>
<rscale>  0 0.20000303E+02</rscale>
<asrwt>0</asrwt>
<pdfrwt beam="1">  1        4 0.31217756E-03 0.20000303E+02</pdfrwt>
<pdfrwt beam="2">  1       -4 0.75820172E-02 0.20000303E+02</pdfrwt>
<totfact> 0.11465029E+06</totfact>
</mgrwt>
</event>
<event>
 5    1  0.1154861E-006  0.2000065E+02  0.7818608E-02  0.1745315E+00
         -4   -1    0    0    0  501 -0.00000000000E+00  0.00000000000E+00  0.51692446246E+02  0.51711946385E+02  0.14200000000E+01 0. -1.
          4   -1    0    0  501    0  0.00000000000E+00 -0.00000000000E+00 -0.16514545982E+01  0.21780041988E+01  0.14200000000E+01 0.  1.
       1023    2    1    2    0    0  0.00000000000E+00  0.00000000000E+00  0.50040991648E+02  0.53889950584E+02  0.20000648210E+02 0.  0.
        -11    1    3    3    0    0 -0.31015132861E+00 -0.99953848941E+01  0.25157060481E+02  0.27071786150E+02  0.51100000000E-03 0.  1.
         11    1    3    3    0    0  0.31015132861E+00  0.99953848941E+01  0.24883931167E+02  0.26818164434E+02  0.51100000000E-03 0. -1.
<mgrwt>
<rscale>  0 0.20000648E+02</rscale>
<asrwt>0</asrwt>
<pdfrwt beam="2">  1        4 0.29607378E-03 0.20000648E+02</pdfrwt>
<pdfrwt beam="1">  1       -4 0.79946874E-02 0.20000648E+02</pdfrwt>
<totfact> 0.11358913E+06</totfact>
</mgrwt>
</event>
<event>
 5    1  0.1158368E-006  0.2000161E+02  0.7818608E-02  0.1745296E+00
         -4   -1    0    0    0  501 -0.00000000000E+00  0.00000000000E+00  0.37413024892E+01  0.40017176707E+01  0.14200000000E+01 0.  1.
          4   -1    0    0  501    0  0.00000000000E+00 -0.00000000000E+00 -0.25553081272E+02  0.25592505983E+02  0.14200000000E+01 0. -1.
       1023    2    1    2    0    0  0.00000000000E+00  0.00000000000E+00 -0.21811778783E+02  0.29594223654E+02  0.20001609435E+02 0.  0.
        -11    1    3    3    0    0 -0.63174211975E+01 -0.77523366151E+01 -0.11034547214E+02  0.14891936276E+02  0.51100000000E-03 0.  1.
         11    1    3    3    0    0  0.63174211975E+01  0.77523366151E+01 -0.10777231569E+02  0.14702287378E+02  0.51100000000E-03 0. -1.
<mgrwt>
<rscale>  0 0.20001609E+02</rscale>
<asrwt>0</asrwt>
<pdfrwt beam="2">  1        4 0.39543078E-02 0.20001609E+02</pdfrwt>
<pdfrwt beam="1">  1       -4 0.59864962E-03 0.20001609E+02</pdfrwt>
<totfact> 0.12474948E+06</totfact>
</mgrwt>
</event>
<event>
 5    1  0.1154861E-006  0.2000042E+02  0.7818608E-02  0.1745320E+00
         -4   -1    0    0    0  501 -0.00000000000E+00  0.00000000000E+00  0.58030163277E+01  0.59742278580E+01  0.14200000000E+01 0.  1.
          4   -1    0    0  501    0  0.00000000000E+00 -0.00000000000E+00 -0.16780978683E+02  0.16840951444E+02  0.14200000000E+01 0. -1.
       1023    2    1    2    0    0  0.00000000000E+00  0.00000000000E+00 -0.10977962355E+02  0.22815179302E+02  0.20000418724E+02 0.  0.
        -11    1    3    3    0    0  0.51431398134E+01  0.85761212733E+01 -0.55453730315E+01  0.11434723676E+02  0.51100000000E-03 0. -1.
         11    1    3    3    0    0 -0.51431398134E+01 -0.85761212733E+01 -0.54325893234E+01  0.11380455626E+02  0.51100000000E-03 0.  1.
<mgrwt>
<rscale>  0 0.20000419E+02</rscale>
<asrwt>0</asrwt>
<pdfrwt beam="2">  1        4 0.25994724E-02 0.20000419E+02</pdfrwt>
<pdfrwt beam="1">  1       -4 0.91055516E-03 0.20000419E+02</pdfrwt>
<totfact> 0.12848620E+06</totfact>
</mgrwt>
</event>
<event>
 5    1  0.1154861E-006  0.2000012E+02  0.7818608E-02  0.1745326E+00
         -4   -1    0    0    0  501 -0.00000000000E+00  0.00000000000E+00  0.66986637678E+01  0.68475175264E+01  0.14200000000E+01 0. -1.
          4   -1    0    0  501    0  0.00000000000E+00 -0.00000000000E+00 -0.14580760860E+02  0.14649743590E+02  0.14200000000E+01 0.  1.
       1023    2    1    2    0    0  0.00000000000E+00  0.00000000000E+00 -0.78820970917E+01  0.21497261116E+02  0.20000119523E+02 0.  0.
        -11    1    3    3    0    0  0.10340682578E+01 -0.99464143967E+01 -0.39118397517E+01  0.10737920982E+02  0.51100000000E-03 0. -1.
         11    1    3    3    0    0 -0.10340682578E+01  0.99464143967E+01 -0.39702573401E+01  0.10759340134E+02  0.51100000000E-03 0.  1.
<mgrwt>
<rscale>  0 0.20000120E+02</rscale>
<asrwt>0</asrwt>
<pdfrwt beam="2">  1        4 0.22599506E-02 0.20000120E+02</pdfrwt>
<pdfrwt beam="1">  1       -4 0.10473203E-02 0.20000120E+02</pdfrwt>
<totfact> 0.12925368E+06</totfact>
</mgrwt>
</event>
<event>
 5    1  0.1154861E-006  0.2000304E+02  0.7818608E-02  0.1745268E+00
          4   -1    0    0  501    0  0.00000000000E+00  0.00000000000E+00  0.94967208116E+01  0.96022969217E+01  0.14200000000E+01 0. -1.
         -4   -1    0    0    0  501 -0.00000000000E+00 -0.00000000000E+00 -0.10320465028E+02  0.10417696406E+02  0.14200000000E+01 0.  1.
       1023    2    1    2    0    0  0.00000000000E+00  0.00000000000E+00 -0.82374421687E+00  0.20019993328E+02  0.20003039227E+02 0.  0.
        -11    1    3    3    0    0 -0.82471962491E+01  0.56579989095E+01 -0.37724966639E+00  0.10008572086E+02  0.51100000000E-03 0. -1.
         11    1    3    3    0    0  0.82471962491E+01 -0.56579989095E+01 -0.44649455048E+00  0.10011421241E+02  0.51100000000E-03 0.  1.
<mgrwt>
<rscale>  0 0.20003039E+02</rscale>
<asrwt>0</asrwt>
<pdfrwt beam="1">  1        4 0.14766345E-02 0.20003039E+02</pdfrwt>
<pdfrwt beam="2">  1       -4 0.16033644E-02 0.20003039E+02</pdfrwt>
<totfact> 0.13008821E+06</totfact>
</mgrwt>
</event>
<event>
 5    1  0.1171682E-006  0.2000181E+02  0.7818608E-02  0.1745292E+00
         -4   -1    0    0    0  501 -0.00000000000E+00  0.00000000000E+00  0.14056720597E+02  0.14128262241E+02  0.14200000000E+01 0.  1.
          4   -1    0    0  501    0  0.00000000000E+00 -0.00000000000E+00 -0.69537855346E+01  0.70972905578E+01  0.14200000000E+01 0. -1.
       1023    2    1    2    0    0  0.00000000000E+00  0.00000000000E+00  0.71029350622E+01  0.21225552798E+02  0.20001810045E+02 0.  0.
        -11    1    3    3    0    0 -0.97454123512E+01  0.22459482872E+01  0.35223012863E+01  0.10603016185E+02  0.51100000000E-03 0. -1.
         11    1    3    3    0    0  0.97454123512E+01 -0.22459482872E+01  0.35806337759E+01  0.10622536613E+02  0.51100000000E-03 0.  1.
<mgrwt>
<rscale>  0 0.20001810E+02</rscale>
<asrwt>0</asrwt>
<pdfrwt beam="2">  1        4 0.10863552E-02 0.20001810E+02</pdfrwt>
<pdfrwt beam="1">  1       -4 0.21791144E-02 0.20001810E+02</pdfrwt>
<totfact> 0.12939074E+06</totfact>
</mgrwt>
</event>
<event>
 5    1  0.1162612E-006  0.2000049E+02  0.7818608E-02  0.1745318E+00
          4   -1    0    0  501    0  0.00000000000E+00  0.00000000000E+00  0.58924993672E+01  0.60611837782E+01  0.14200000000E+01 0.  1.
         -4   -1    0    0    0  501 -0.00000000000E+00 -0.00000000000E+00 -0.16532514721E+02  0.16593385520E+02  0.14200000000E+01 0. -1.
       1023    2    1    2    0    0  0.00000000000E+00  0.00000000000E+00 -0.10640015354E+02  0.22654569298E+02  0.20000489577E+02 0.  0.
        -11    1    3    3    0    0  0.57369344950E+00  0.99837723533E+01 -0.53111612386E+01  0.11323129803E+02  0.51100000000E-03 0. -1.
         11    1    3    3    0    0 -0.57369344950E+00 -0.99837723533E+01 -0.53288541152E+01  0.11331439495E+02  0.51100000000E-03 0.  1.
<mgrwt>
<rscale>  0 0.20000490E+02</rscale>
<asrwt>0</asrwt>
<pdfrwt beam="1">  1        4 0.92419646E-03 0.20000490E+02</pdfrwt>
<pdfrwt beam="2">  1       -4 0.25611219E-02 0.20000490E+02</pdfrwt>
<totfact> 0.12857755E+06</totfact>
</mgrwt>
</event>
<event>
 5    1  0.1179636E-006  0.2000137E+02  0.7818608E-02  0.1745301E+00
          4   -1    0    0  501    0  0.00000000000E+00  0.00000000000E+00  0.45454601440E+01  0.47621012086E+01  0.14200000000E+01 0. -1.
         -4   -1    0    0    0  501 -0.00000000000E+00 -0.00000000000E+00 -0.21249955626E+02  0.21297347584E+02  0.14200000000E+01 0.  1.
       1023    2    1    2    0    0  0.00000000000E+00  0.00000000000E+00 -0.16704495482E+02  0.26059448792E+02  0.20001367505E+02 0.  0.
        -11    1    3    3    0    0  0.72448230692E+00 -0.99739641502E+01 -0.82297505852E+01  0.12951201892E+02  0.51100000000E-03 0. -1.
         11    1    3    3    0    0 -0.72448230692E+00  0.99739641502E+01 -0.84747448966E+01  0.13108246901E+02  0.51100000000E-03 0.  1.
<mgrwt>
<rscale>  0 0.20001368E+02</rscale>
<asrwt>0</asrwt>
<pdfrwt beam="1">  1        4 0.71961181E-03 0.20001368E+02</pdfrwt>
<pdfrwt beam="2">  1       -4 0.32895341E-02 0.20001368E+02</pdfrwt>
<totfact> 0.12665134E+06</totfact>
</mgrwt>
</event>
<event>
 5    1  0.1154861E-006  0.2000489E+02  0.7818608E-02  0.1745231E+00
          4   -1    0    0  501    0  0.00000000000E+00  0.00000000000E+00  0.87135883804E+02  0.87147453470E+02  0.14200000000E+01 0. -1.
         -4   -1    0    0    0  501 -0.00000000000E+00 -0.00000000000E+00 -0.69297196105E+00  0.15800664982E+01  0.14200000000E+01 0.  1.
       1023    2    1    2    0    0  0.00000000000E+00  0.00000000000E+00  0.86442911843E+02  0.88727519968E+02  0.20004894197E+02 0.  0.
        -11    1    3    3    0    0 -0.85044283233E+01  0.52610828413E+01  0.42284213565E+02  0.43450650292E+02  0.51100000000E-03 0. -1.
         11    1    3    3    0    0  0.85044283233E+01 -0.52610828413E+01  0.44158698278E+02  0.45276869676E+02  0.51100000000E-03 0.  1.
<mgrwt>
<rscale>  0 0.20004894E+02</rscale>
<asrwt>0</asrwt>
<pdfrwt beam="1">  1        4 0.13474652E-01 0.20004894E+02</pdfrwt>
<pdfrwt beam="2">  1       -4 0.17573904E-03 0.20004894E+02</pdfrwt>
<totfact> 0.10129680E+06</totfact>
</mgrwt>
</event>
<event>
 5    1  0.1167179E-006  0.2000156E+02  0.7818608E-02  0.1745297E+00
         -4   -1    0    0    0  501 -0.00000000000E+00  0.00000000000E+00  0.75173950354E+01  0.76503351638E+01  0.14200000000E+01 0. -1.
          4   -1    0    0  501    0  0.00000000000E+00 -0.00000000000E+00 -0.13016048535E+02  0.13093277644E+02  0.14200000000E+01 0.  1.
       1023    2    1    2    0    0  0.00000000000E+00  0.00000000000E+00 -0.54986534997E+01  0.20743612808E+02  0.20001556990E+02 0.  0.
        -11    1    3    3    0    0 -0.99722659618E+01 -0.75463825528E+00 -0.27511028989E+01  0.10372277220E+02  0.51100000000E-03 0. -1.
         11    1    3    3    0    0  0.99722659618E+01  0.75463825528E+00 -0.27475506009E+01  0.10371335588E+02  0.51100000000E-03 0.  1.
<mgrwt>
<rscale>  0 0.20001557E+02</rscale>
<asrwt>0</asrwt>
<pdfrwt beam="2">  1        4 0.20186359E-02 0.20001557E+02</pdfrwt>
<pdfrwt beam="1">  1       -4 0.11726892E-02 0.20001557E+02</pdfrwt>
<totfact> 0.12967859E+06</totfact>
</mgrwt>
</event>
<event>
 5    1  0.1154861E-006  0.2000018E+02  0.7818608E-02  0.1745324E+00
         -4   -1    0    0    0  501 -0.00000000000E+00  0.00000000000E+00  0.49251937224E+02  0.49272403233E+02  0.14200000000E+01 0. -1.
          4   -1    0    0  501    0  0.00000000000E+00 -0.00000000000E+00 -0.17586128889E+01  0.22603361018E+01  0.14200000000E+01 0.  1.
       1023    2    1    2    0    0  0.00000000000E+00  0.00000000000E+00  0.47493324335E+02  0.51532739335E+02  0.20000184172E+02 0.  0.
        -11    1    3    3    0    0 -0.93285964588E+01  0.36025909607E+01  0.23690924825E+02  0.25715001319E+02  0.51100000000E-03 0.  1.
         11    1    3    3    0    0  0.93285964588E+01 -0.36025909607E+01  0.23802399510E+02  0.25817738015E+02  0.51100000000E-03 0. -1.
<mgrwt>
<rscale>  0 0.20000184E+02</rscale>
<asrwt>0</asrwt>
<pdfrwt beam="2">  1        4 0.31072424E-03 0.20000184E+02</pdfrwt>
<pdfrwt beam="1">  1       -4 0.76173893E-02 0.20000184E+02</pdfrwt>
<totfact> 0.11456022E+06</totfact>
</mgrwt>
</event>
<event>
 5    1  0.1170020E-006  0.2000073E+02  0.7818608E-02  0.1745314E+00
         -4   -1    0    0    0  501 -0.00000000000E+00  0.00000000000E+00  0.44802655602E+01  0.46999127109E+01  0.14200000000E+01 0. -1.
          4   -1    0    0  501    0  0.00000000000E+00 -0.00000000000E+00 -0.21544085841E+02  0.21590832191E+02  0.14200000000E+01 0.  1.
       1023    2    1    2    0    0  0.00000000000E+00  0.00000000000E+00 -0.17063820280E+02  0.26290744902E+02  0.20000732610E+02 0.  0.
        -11    1    3    3    0    0 -0.97797045128E+01  0.20888003015E+01 -0.85847996203E+01  0.13179699991E+02  0.51100000000E-03 0.  1.
         11    1    3    3    0    0  0.97797045128E+01 -0.20888003015E+01 -0.84790206601E+01  0.13111044912E+02  0.51100000000E-03 0. -1.
<mgrwt>
<rscale>  0 0.20000733E+02</rscale>
<asrwt>0</asrwt>
<pdfrwt beam="2">  1        4 0.33349665E-02 0.20000733E+02</pdfrwt>
<pdfrwt beam="1">  1       -4 0.70976344E-03 0.20000733E+02</pdfrwt>
<totfact> 0.12653252E+06</totfact>
</mgrwt>
</event>
<event>
 4    1  0.1154861E-006  0.2002765E+02  0.7818608E-02  0.1744779E+00
          4   -1    0    0  501    0  0.00000000000E+00  0.00000000000E+00  0.13328559719E+01  0.19475382003E+01  0.14200000000E+01 0. -1.
         -4   -1    0    0    0  501 -0.00000000000E+00 -0.00000000000E+00 -0.60512403956E+02  0.60529062710E+02  0.14200000000E+01 0.  1.
        -11    1    1    2    0    0  0.79429873064E+01 -0.60887555928E+01 -0.28542535061E+02  0.30246327049E+02  0.51100000000E-03 0. -1.
         11    1    1    2    0    0 -0.79429873064E+01  0.60887555928E+01 -0.30637012923E+02  0.32230273861E+02  0.51100000000E-03 0.  1.
<mgrwt>
<rscale>  0 0.20027650E+02</rscale>
<asrwt>0</asrwt>
<pdfrwt beam="1">  1        4 0.25361950E-03 0.20027650E+02</pdfrwt>
<pdfrwt beam="2">  1       -4 0.93581636E-02 0.20027650E+02</pdfrwt>
<totfact> 0.10994198E+06</totfact>
</mgrwt>
</event>
<event>
 5    1  0.1154861E-006  0.2000149E+02  0.7818608E-02  0.1745298E+00
         -4   -1    0    0    0  501 -0.00000000000E+00  0.00000000000E+00  0.36664422574E+02  0.36691910317E+02  0.14200000000E+01 0. -1.
          4   -1    0    0  501    0  0.00000000000E+00 -0.00000000000E+00 -0.25125128932E+01  0.28860216628E+01  0.14200000000E+01 0.  1.
       1023    2    1    2    0    0  0.00000000000E+00  0.00000000000E+00  0.34151909681E+02  0.39577931980E+02  0.20001494067E+02 0.  0.
        -11    1    3    3    0    0  0.70865742073E+01  0.70565857042E+01  0.17071453650E+02  0.19785081900E+02  0.51100000000E-03 0.  1.
         11    1    3    3    0    0 -0.70865742073E+01 -0.70565857042E+01  0.17080456031E+02  0.19792850080E+02  0.51100000000E-03 0. -1.
<mgrwt>
<rscale>  0 0.20001494E+02</rscale>
<asrwt>0</asrwt>
<pdfrwt beam="2">  1        4 0.41738632E-03 0.20001494E+02</pdfrwt>
<pdfrwt beam="1">  1       -4 0.56715264E-02 0.20001494E+02</pdfrwt>
<totfact> 0.11980488E+06</totfact>
</mgrwt>
</event>
<event>
 5    1  0.1195718E-006  0.2000090E+02  0.7818608E-02  0.1745310E+00
         -4   -1    0    0    0  501 -0.00000000000E+00  0.00000000000E+00  0.37926154033E+01  0.40497322872E+01  0.14200000000E+01 0. -1.
          4   -1    0    0  501    0  0.00000000000E+00 -0.00000000000E+00 -0.25227113205E+02  0.25267046536E+02  0.14200000000E+01 0.  1.
       1023    2    1    2    0    0  0.00000000000E+00  0.00000000000E+00 -0.21434497801E+02  0.29316778823E+02  0.20000895594E+02 0.  0.
        -11    1    3    3    0    0  0.95934837310E+01 -0.28224035131E+01 -0.10585621236E+02  0.14562151932E+02  0.51100000000E-03 0. -1.
         11    1    3    3    0    0 -0.95934837310E+01  0.28224035131E+01 -0.10848876565E+02  0.14754626891E+02  0.51100000000E-03 0.  1.
<mgrwt>
<rscale>  0 0.20000896E+02</rscale>
<asrwt>0</asrwt>
<pdfrwt beam="2">  1        4 0.39039442E-02 0.20000896E+02</pdfrwt>
<pdfrwt beam="1">  1       -4 0.60632933E-03 0.20000896E+02</pdfrwt>
<totfact> 0.12490443E+06</totfact>
</mgrwt>
</event>
<event>
 5    1  0.1154861E-006  0.2000022E+02  0.7818608E-02  0.1745324E+00
         -4   -1    0    0    0  501 -0.00000000000E+00  0.00000000000E+00  0.25625773575E+01  0.29297103463E+01  0.14200000000E+01 0. -1.
          4   -1    0    0  501    0  0.00000000000E+00 -0.00000000000E+00 -0.36033451042E+02  0.36061419745E+02  0.14200000000E+01 0.  1.
       1023    2    1    2    0    0  0.00000000000E+00  0.00000000000E+00 -0.33470873685E+02  0.38991130091E+02  0.20000221013E+02 0.  0.
        -11    1    3    3    0    0 -0.10386271826E+01  0.99459366586E+01 -0.16652554341E+02  0.19424416820E+02  0.51100000000E-03 0.  1.
         11    1    3    3    0    0  0.10386271826E+01 -0.99459366586E+01 -0.16818319344E+02  0.19566713272E+02  0.51100000000E-03 0. -1.
<mgrwt>
<rscale>  0 0.20000221E+02</rscale>
<asrwt>0</asrwt>
<pdfrwt beam="2">  1        4 0.55739999E-02 0.20000221E+02</pdfrwt>
<pdfrwt beam="1">  1       -4 0.42463513E-03 0.20000221E+02</pdfrwt>
<totfact> 0.12009559E+06</totfact>
</mgrwt>
</event>
<event>
 5    1  0.1154861E-006  0.2000008E+02  0.7818608E-02  0.1745326E+00
         -4   -1    0    0    0  501 -0.00000000000E+00  0.00000000000E+00  0.13772339174E+02  0.13845350350E+02  0.14200000000E+01 0.  1.
          4   -1    0    0  501    0  0.00000000000E+00 -0.00000000000E+00 -0.70982763172E+01  0.72389175071E+01  0.14200000000E+01 0. -1.
       1023    2    1    2    0    0  0.00000000000E+00  0.00000000000E+00  0.66740628564E+01  0.21084267857E+02  0.20000080901E+02 0.  0.
        -11    1    3    3    0    0 -0.21755855896E+01 -0.97605140968E+01  0.33361739622E+01  0.10541862504E+02  0.51100000000E-03 0.  1.
         11    1    3    3    0    0  0.21755855896E+01  0.97605140968E+01  0.33378888941E+01  0.10542405353E+02  0.51100000000E-03 0. -1.
<mgrwt>
<rscale>  0 0.20000081E+02</rscale>
<asrwt>0</asrwt>
<pdfrwt beam="2">  1        4 0.11084773E-02 0.20000081E+02</pdfrwt>
<pdfrwt beam="1">  1       -4 0.21352562E-02 0.20000081E+02</pdfrwt>
<totfact> 0.12949673E+06</totfact>
</mgrwt>
</event>
<event>
 5    1  0.1156893E-006  0.2000079E+02  0.7818608E-02  0.1745312E+00
          4   -1    0    0  501    0  0.00000000000E+00  0.00000000000E+00  0.16208573983E+01  0.21548964490E+01  0.14200000000E+01 0.  1.
         -4   -1    0    0    0  501 -0.00000000000E+00 -0.00000000000E+00 -0.52428737139E+02  0.52447963526E+02  0.14200000000E+01 0. -1.
       1023    2    1    2    0    0  0.00000000000E+00  0.00000000000E+00 -0.50807879741E+02  0.54602859975E+02  0.20000791826E+02 0.  0.
        -11    1    3    3    0    0 -0.55877835704E+01 -0.82932042485E+01 -0.25638090592E+02  0.27519306884E+02  0.51100000000E-03 0. -1.
         11    1    3    3    0    0  0.55877835704E+01  0.82932042485E+01 -0.25169789149E+02  0.27083553091E+02  0.51100000000E-03 0.  1.
<mgrwt>
<rscale>  0 0.20000792E+02</rscale>
<asrwt>0</asrwt>
<pdfrwt beam="1">  1        4 0.29192160E-03 0.20000792E+02</pdfrwt>
<pdfrwt beam="2">  1       -4 0.81085173E-02 0.20000792E+02</pdfrwt>
<totfact> 0.11329962E+06</totfact>
</mgrwt>
</event>
<event>
 5    1  0.1154861E-006  0.2000084E+02  0.7818608E-02  0.1745311E+00
         -4   -1    0    0    0  501 -0.00000000000E+00  0.00000000000E+00  0.38986416582E+02  0.39012268299E+02  0.14200000000E+01 0. -1.
          4   -1    0    0  501    0  0.00000000000E+00 -0.00000000000E+00 -0.23398564392E+01  0.27370290747E+01  0.14200000000E+01 0.  1.
       1023    2    1    2    0    0  0.00000000000E+00  0.00000000000E+00  0.36646560142E+02  0.41749297374E+02  0.20000836507E+02 0.  0.
        -11    1    3    3    0    0  0.33413862511E+01  0.94255504294E+01  0.18218869349E+02  0.20782999389E+02  0.51100000000E-03 0. -1.
         11    1    3    3    0    0 -0.33413862511E+01 -0.94255504294E+01  0.18427690793E+02  0.20966297986E+02  0.51100000000E-03 0.  1.
<mgrwt>
<rscale>  0 0.20000837E+02</rscale>
<asrwt>0</asrwt>
<pdfrwt beam="2">  1        4 0.39251826E-03 0.20000837E+02</pdfrwt>
<pdfrwt beam="1">  1       -4 0.60304503E-02 0.20000837E+02</pdfrwt>
<totfact> 0.11880953E+06</totfact>
</mgrwt>
</event>
<event>
 5    1  0.1159269E-006  0.2000061E+02  0.7818608E-02  0.1745316E+00
          4   -1    0    0  501    0  0.00000000000E+00  0.00000000000E+00  0.23122815385E+01  0.27134933044E+01  0.14200000000E+01 0. -1.
         -4   -1    0    0    0  501 -0.00000000000E+00 -0.00000000000E+00 -0.39382271733E+02  0.39407863769E+02  0.14200000000E+01 0.  1.
       1023    2    1    2    0    0  0.00000000000E+00  0.00000000000E+00 -0.37069990194E+02  0.42121357073E+02  0.20000613708E+02 0.  0.
        -11    1    3    3    0    0 -0.19105157870E+01  0.98161064485E+01 -0.18511873919E+02  0.21040330145E+02  0.51100000000E-03 0.  1.
         11    1    3    3    0    0  0.19105157870E+01 -0.98161064485E+01 -0.18558116275E+02  0.21081026928E+02  0.51100000000E-03 0. -1.
<mgrwt>
<rscale>  0 0.20000614E+02</rscale>
<asrwt>0</asrwt>
<pdfrwt beam="1">  1        4 0.38856671E-03 0.20000614E+02</pdfrwt>
<pdfrwt beam="2">  1       -4 0.60916417E-02 0.20000614E+02</pdfrwt>
<totfact> 0.11864263E+06</totfact>
</mgrwt>
</event>
<event>
 5    1  0.1154861E-006  0.2000043E+02  0.7818608E-02  0.1745319E+00
         -4   -1    0    0    0  501 -0.00000000000E+00  0.00000000000E+00  0.41880721710E+02  0.41904787924E+02  0.14200000000E+01 0. -1.
          4   -1    0    0  501    0  0.00000000000E+00 -0.00000000000E+00 -0.21496951753E+01  0.25763519454E+01  0.14200000000E+01 0.  1.
       1023    2    1    2    0    0  0.00000000000E+00  0.00000000000E+00  0.39731026534E+02  0.44481139869E+02  0.20000433360E+02 0.  0.
        -11    1    3    3    0    0 -0.98955974820E+01  0.14426887865E+01  0.19839872291E+02  0.22217667142E+02  0.51100000000E-03 0. -1.
         11    1    3    3    0    0  0.98955974820E+01 -0.14426887865E+01  0.19891154243E+02  0.22263472727E+02  0.51100000000E-03 0.  1.
<mgrwt>
<rscale>  0 0.20000433E+02</rscale>
<asrwt>0</asrwt>
<pdfrwt beam="2">  1        4 0.36539336E-03 0.20000433E+02</pdfrwt>
<pdfrwt beam="1">  1       -4 0.64778585E-02 0.20000433E+02</pdfrwt>
<totfact> 0.11758297E+06</totfact>
</mgrwt>
</event>
<event>
 5    1  0.1154861E-006  0.2000052E+02  0.7818608E-02  0.1745318E+00
          4   -1    0    0  501    0  0.00000000000E+00  0.00000000000E+00  0.54281055797E+01  0.56107691259E+01  0.14200000000E+01 0. -1.
         -4   -1    0    0    0  501 -0.00000000000E+00 -0.00000000000E+00 -0.17907495670E+02  0.17963707890E+02  0.14200000000E+01 0.  1.
       1023    2    1    2    0    0  0.00000000000E+00  0.00000000000E+00 -0.12479390090E+02  0.23574477016E+02  0.20000519732E+02 0.  0.
        -11    1    3    3    0    0  0.96588297798E+01 -0.25902617582E+01 -0.63014886925E+01  0.11819949606E+02  0.51100000000E-03 0. -1.
         11    1    3    3    0    0 -0.96588297798E+01  0.25902617582E+01 -0.61779013977E+01  0.11754527410E+02  0.51100000000E-03 0.  1.
<mgrwt>
<rscale>  0 0.20000520E+02</rscale>
<asrwt>0</asrwt>
<pdfrwt beam="1">  1        4 0.85346824E-03 0.20000520E+02</pdfrwt>
<pdfrwt beam="2">  1       -4 0.27733744E-02 0.20000520E+02</pdfrwt>
<totfact> 0.12805158E+06</totfact>
</mgrwt>
</event>
<event>
 5    1  0.1154861E-006  0.2000046E+02  0.7818608E-02  0.1745319E+00
         -4   -1    0    0    0  501 -0.00000000000E+00  0.00000000000E+00  0.50667443926E+02  0.50687338400E+02  0.14200000000E+01 0. -1.
          4   -1    0    0  501    0  0.00000000000E+00 -0.00000000000E+00 -0.16953504453E+01  0.22114730684E+01  0.14200000000E+01 0.  1.
       1023    2    1    2    0    0  0.00000000000E+00  0.00000000000E+00  0.48972093481E+02  0.52898811468E+02  0.20000457865E+02 0.  0.
        -11    1    3    3    0    0 -0.62338765470E+01 -0.78193369502E+01  0.24389543157E+02  0.26360065683E+02  0.51100000000E-03 0. -1.
         11    1    3    3    0    0  0.62338765470E+01  0.78193369502E+01  0.24582550324E+02  0.26538745785E+02  0.51100000000E-03 0.  1.
<mgrwt>
<rscale>  0 0.20000458E+02</rscale>
<asrwt>0</asrwt>
<pdfrwt beam="2">  1        4 0.30205526E-03 0.20000458E+02</pdfrwt>
<pdfrwt beam="1">  1       -4 0.78362227E-02 0.20000458E+02</pdfrwt>
<totfact> 0.11399476E+06</totfact>
</mgrwt>
</event>
<event>
 5    1  0.1154861E-006  0.2000045E+02  0.7818608E-02  0.1745319E+00
         -4   -1    0    0    0  501 -0.00000000000E+00  0.00000000000E+00  0.44795054889E+02  0.44817556186E+02  0.14200000000E+01 0. -1.
          4   -1    0    0  501    0  0.00000000000E+00 -0.00000000000E+00 -0.19812053062E+01  0.24375345055E+01  0.14200000000E+01 0.  1.
       1023    2    1    2    0    0  0.00000000000E+00  0.00000000000E+00  0.42813849582E+02  0.47255090691E+02  0.20000447000E+02 0.  0.
        -11    1    3    3    0    0 -0.11893257794E+01  0.99290430392E+01  0.21256038944E+02  0.23490840413E+02  0.51100000000E-03 0.  1.
         11    1    3    3    0    0  0.11893257794E+01 -0.99290430392E+01  0.21557810639E+02  0.23764250278E+02  0.51100000000E-03 0. -1.
<mgrwt>
<rscale>  0 0.20000447E+02</rscale>
<asrwt>0</asrwt>
<pdfrwt beam="2">  1        4 0.34163395E-03 0.20000447E+02</pdfrwt>
<pdfrwt beam="1">  1       -4 0.69283796E-02 0.20000447E+02</pdfrwt>
<totfact> 0.11636706E+06</totfact>
</mgrwt>
</event>
<event>
 5    1  0.1154861E-006  0.2000065E+02  0.7818608E-02  0.1745315E+00
         -4   -1    0    0    0  501 -0.00000000000E+00  0.00000000000E+00  0.70144334337E+00  0.15838001023E+01  0.14200000000E+01 0. -1.
          4   -1    0    0  501    0  0.00000000000E+00 -0.00000000000E+00 -0.86633272753E+02  0.86644909533E+02  0.14200000000E+01 0.  1.
       1023    2    1    2    0    0  0.00000000000E+00  0.00000000000E+00 -0.85931829410E+02  0.88228709635E+02  0.20000647443E+02 0.  0.
        -11    1    3    3    0    0  0.78758755461E+01 -0.61623268632E+01 -0.42733063413E+02  0.43887565402E+02  0.51100000000E-03 0. -1.
         11    1    3    3    0    0 -0.78758755461E+01  0.61623268632E+01 -0.43198765997E+02  0.44341144233E+02  0.51100000000E-03 0.  1.
<mgrwt>
<rscale>  0 0.20000647E+02</rscale>
<asrwt>0</asrwt>
<pdfrwt beam="2">  1        4 0.13396959E-01 0.20000647E+02</pdfrwt>
<pdfrwt beam="1">  1       -4 0.17668316E-03 0.20000647E+02</pdfrwt>
<totfact> 0.10149336E+06</totfact>
</mgrwt>
</event>
<event>
 5    1  0.1154861E-006  0.2000027E+02  0.7818608E-02  0.1745323E+00
          4   -1    0    0  501    0  0.00000000000E+00  0.00000000000E+00  0.11806046654E+01  0.18466800957E+01  0.14200000000E+01 0.  1.
         -4   -1    0    0    0  501 -0.00000000000E+00 -0.00000000000E+00 -0.65392121724E+02  0.65407537667E+02  0.14200000000E+01 0. -1.
       1023    2    1    2    0    0  0.00000000000E+00  0.00000000000E+00 -0.64211517059E+02  0.67254217762E+02  0.20000272094E+02 0.  0.
        -11    1    3    3    0    0  0.93942501755E+01  0.34279405974E+01 -0.32115025218E+02  0.33635956328E+02  0.51100000000E-03 0. -1.
         11    1    3    3    0    0 -0.93942501755E+01 -0.34279405974E+01 -0.32096491841E+02  0.33618261435E+02  0.51100000000E-03 0.  1.
<mgrwt>
<rscale>  0 0.20000272E+02</rscale>
<asrwt>0</asrwt>
<pdfrwt beam="1">  1        4 0.23405395E-03 0.20000272E+02</pdfrwt>
<pdfrwt beam="2">  1       -4 0.10112747E-01 0.20000272E+02</pdfrwt>
<totfact> 0.10848526E+06</totfact>
</mgrwt>
</event>
<event>
 5    1  0.1154861E-006  0.2000182E+02  0.7818608E-02  0.1745292E+00
         -4   -1    0    0    0  501 -0.00000000000E+00  0.00000000000E+00  0.15509059728E+01  0.21027860891E+01  0.14200000000E+01 0. -1.
          4   -1    0    0  501    0  0.00000000000E+00 -0.00000000000E+00 -0.54186516988E+02  0.54205119900E+02  0.14200000000E+01 0.  1.
       1023    2    1    2    0    0  0.00000000000E+00  0.00000000000E+00 -0.52635611016E+02  0.56307905989E+02  0.20001818164E+02 0.  0.
        -11    1    3    3    0    0 -0.62212486062E+01  0.78300577141E+01 -0.26505475808E+02  0.28329383793E+02  0.51100000000E-03 0. -1.
         11    1    3    3    0    0  0.62212486062E+01 -0.78300577141E+01 -0.26130135208E+02  0.27978522196E+02  0.51100000000E-03 0.  1.
<mgrwt>
<rscale>  0 0.20001818E+02</rscale>
<asrwt>0</asrwt>
<pdfrwt beam="2">  1        4 0.83802693E-02 0.20001818E+02</pdfrwt>
<pdfrwt beam="1">  1       -4 0.28248427E-03 0.20001818E+02</pdfrwt>
<totfact> 0.11260712E+06</totfact>
</mgrwt>
</event>
<event>
 5    1  0.1154861E-006  0.2000089E+02  0.7818608E-02  0.1745310E+00
         -4   -1    0    0    0  501 -0.00000000000E+00  0.00000000000E+00  0.16240794369E+02  0.16302754422E+02  0.14200000000E+01 0. -1.
          4   -1    0    0  501    0  0.00000000000E+00 -0.00000000000E+00 -0.60011813097E+01  0.61668936355E+01  0.14200000000E+01 0.  1.
       1023    2    1    2    0    0  0.00000000000E+00  0.00000000000E+00  0.10239613059E+02  0.22469648057E+02  0.20000885186E+02 0.  0.
        -11    1    3    3    0    0  0.82623617664E+01 -0.56336979722E+01  0.51879294791E+01  0.11265868246E+02  0.51100000000E-03 0.  1.
         11    1    3    3    0    0 -0.82623617664E+01  0.56336979722E+01  0.50516835803E+01  0.11203779811E+02  0.51100000000E-03 0. -1.
<mgrwt>
<rscale>  0 0.20000885E+02</rscale>
<asrwt>0</asrwt>
<pdfrwt beam="2">  1        4 0.94077195E-03 0.20000885E+02</pdfrwt>
<pdfrwt beam="1">  1       -4 0.25160969E-02 0.20000885E+02</pdfrwt>
<totfact> 0.12867889E+06</totfact>
</mgrwt>
</event>
<event>
 5    1  0.1181820E-006  0.2000172E+02  0.7818608E-02  0.1745294E+00
         -4   -1    0    0    0  501 -0.00000000000E+00  0.00000000000E+00  0.12902873392E+02  0.12980775854E+02  0.14200000000E+01 0.  1.
          4   -1    0    0  501    0  0.00000000000E+00 -0.00000000000E+00 -0.75842222620E+01  0.77160111016E+01  0.14200000000E+01 0. -1.
       1023    2    1    2    0    0  0.00000000000E+00  0.00000000000E+00  0.53186511303E+01  0.20696786956E+02  0.20001723437E+02 0.  0.
        -11    1    3    3    0    0 -0.27567289154E+01 -0.96131019121E+01  0.25794942965E+01  0.10327878474E+02  0.51100000000E-03 0.  1.
         11    1    3    3    0    0  0.27567289154E+01  0.96131019121E+01  0.27391568339E+01  0.10368908482E+02  0.51100000000E-03 0. -1.
<mgrwt>
<rscale>  0 0.20001723E+02</rscale>
<asrwt>0</asrwt>
<pdfrwt beam="2">  1        4 0.11829335E-02 0.20001723E+02</pdfrwt>
<pdfrwt beam="1">  1       -4 0.20011875E-02 0.20001723E+02</pdfrwt>
<totfact> 0.12970409E+06</totfact>
</mgrwt>
</event>
<event>
 5    1  0.1154861E-006  0.2000066E+02  0.7818608E-02  0.1745315E+00
         -4   -1    0    0    0  501 -0.00000000000E+00  0.00000000000E+00  0.14482443534E+01  0.20282533636E+01  0.14200000000E+01 0.  1.
          4   -1    0    0  501    0  0.00000000000E+00 -0.00000000000E+00 -0.56942636256E+02  0.56960339042E+02  0.14200000000E+01 0. -1.
       1023    2    1    2    0    0  0.00000000000E+00  0.00000000000E+00 -0.55494391903E+02  0.58988592406E+02  0.20000662523E+02 0.  0.
        -11    1    3    3    0    0  0.47545457405E+01 -0.87977200140E+01 -0.27651971524E+02  0.29404712412E+02  0.51100000000E-03 0.  1.
         11    1    3    3    0    0 -0.47545457405E+01  0.87977200140E+01 -0.27842420379E+02  0.29583879994E+02  0.51100000000E-03 0. -1.
<mgrwt>
<rscale>  0 0.20000663E+02</rscale>
<asrwt>0</asrwt>
<pdfrwt beam="2">  1        4 0.88063820E-02 0.20000663E+02</pdfrwt>
<pdfrwt beam="1">  1       -4 0.26878470E-03 0.20000663E+02</pdfrwt>
<totfact> 0.11157083E+06</totfact>
</mgrwt>
</event>
<event>
 5    1  0.1154861E-006  0.2000024E+02  0.7818608E-02  0.1745323E+00
          4   -1    0    0  501    0  0.00000000000E+00  0.00000000000E+00  0.27149132324E+02  0.27186242586E+02  0.14200000000E+01 0. -1.
         -4   -1    0    0    0  501 -0.00000000000E+00 -0.00000000000E+00 -0.35053776973E+01  0.37820725536E+01  0.14200000000E+01 0.  1.
       1023    2    1    2    0    0  0.00000000000E+00  0.00000000000E+00  0.23643754626E+02  0.30968315139E+02  0.20000235242E+02 0.  0.
        -11    1    3    3    0    0  0.22451153689E+01  0.97448229002E+01  0.11798100716E+02  0.15466004563E+02  0.51100000000E-03 0. -1.
         11    1    3    3    0    0 -0.22451153689E+01 -0.97448229002E+01  0.11845653911E+02  0.15502310577E+02  0.51100000000E-03 0.  1.
<mgrwt>
<rscale>  0 0.20000235E+02</rscale>
<asrwt>0</asrwt>
<pdfrwt beam="1">  1        4 0.42009285E-02 0.20000235E+02</pdfrwt>
<pdfrwt beam="2">  1       -4 0.56342773E-03 0.20000235E+02</pdfrwt>
<totfact> 0.12405174E+06</totfact>
</mgrwt>
</event>
<event>
 5    1  0.1154861E-006  0.2000045E+02  0.7818608E-02  0.1745319E+00
         -4   -1    0    0    0  501 -0.00000000000E+00  0.00000000000E+00  0.98943717942E+01  0.99957487564E+01  0.14200000000E+01 0.  1.
          4   -1    0    0  501    0  0.00000000000E+00 -0.00000000000E+00 -0.99034167426E+01  0.10004702053E+02  0.14200000000E+01 0. -1.
       1023    2    1    2    0    0  0.00000000000E+00  0.00000000000E+00 -0.90449484386E-02  0.20000450810E+02  0.20000448765E+02 0.  0.
        -11    1    3    3    0    0  0.40016399400E+01 -0.91645414813E+01  0.45922185196E-01  0.10000202592E+02  0.51100000000E-03 0.  1.
         11    1    3    3    0    0 -0.40016399400E+01  0.91645414813E+01 -0.54967133634E-01  0.10000248218E+02  0.51100000000E-03 0. -1.
<mgrwt>
<rscale>  0 0.20000449E+02</rscale>
<asrwt>0</asrwt>
<pdfrwt beam="2">  1        4 0.15391920E-02 0.20000449E+02</pdfrwt>
<pdfrwt beam="1">  1       -4 0.15378004E-02 0.20000449E+02</pdfrwt>
<totfact> 0.13013422E+06</totfact>
</mgrwt>
</event>
<event>
 5    1  0.1154861E-006  0.2000288E+02  0.7818608E-02  0.1745271E+00
          4   -1    0    0  501    0  0.00000000000E+00  0.00000000000E+00  0.15330376202E+02  0.15396000601E+02  0.14200000000E+01 0.  1.
         -4   -1    0    0    0  501 -0.00000000000E+00 -0.00000000000E+00 -0.63669345149E+01  0.65233622556E+01  0.14200000000E+01 0. -1.
       1023    2    1    2    0    0  0.00000000000E+00  0.00000000000E+00  0.89634416870E+01  0.21919362856E+02  0.20002879321E+02 0.  0.
        -11    1    3    3    0    0  0.40059305148E+00  0.99932756463E+01  0.45393117813E+01  0.10983231976E+02  0.51100000000E-03 0.  1.
         11    1    3    3    0    0 -0.40059305148E+00 -0.99932756463E+01  0.44241299057E+01  0.10936130880E+02  0.51100000000E-03 0. -1.
<mgrwt>
<rscale>  0 0.20002879E+02</rscale>
<asrwt>0</asrwt>
<pdfrwt beam="1">  1        4 0.23756003E-02 0.20002879E+02</pdfrwt>
<pdfrwt beam="2">  1       -4 0.99660933E-03 0.20002879E+02</pdfrwt>
<totfact> 0.12897121E+06</totfact>
</mgrwt>
</event>
<event>
 5    1  0.1154861E-006  0.2000429E+02  0.7818608E-02  0.1745243E+00
         -4   -1    0    0    0  501 -0.00000000000E+00  0.00000000000E+00  0.29695632491E+02  0.29729564225E+02  0.14200000000E+01 0.  1.
          4   -1    0    0  501    0  0.00000000000E+00 -0.00000000000E+00 -0.31817575636E+01  0.34842475793E+01  0.14200000000E+01 0. -1.
       1023    2    1    2    0    0  0.00000000000E+00  0.00000000000E+00  0.26513874927E+02  0.33213811805E+02  0.20004292813E+02 0.  0.
        -11    1    3    3    0    0 -0.99550125736E+01  0.96632679769E+00  0.13394551564E+02  0.16716760293E+02  0.51100000000E-03 0.  1.
         11    1    3    3    0    0  0.99550125736E+01 -0.96632679769E+00  0.13119323363E+02  0.16497051512E+02  0.51100000000E-03 0. -1.
<mgrwt>
<rscale>  0 0.20004293E+02</rscale>
<asrwt>0</asrwt>
<pdfrwt beam="2">  1        4 0.51537974E-03 0.20004293E+02</pdfrwt>
<pdfrwt beam="1">  1       -4 0.45944376E-02 0.20004293E+02</pdfrwt>
<totfact> 0.12285575E+06</totfact>
</mgrwt>
</event>
<event>
 5    1  0.1154861E-006  0.2000014E+02  0.7818608E-02  0.1745325E+00
          4   -1    0    0  501    0  0.00000000000E+00  0.00000000000E+00  0.59710049606E+02  0.59726932149E+02  0.14200000000E+01 0.  1.
         -4   -1    0    0    0  501 -0.00000000000E+00 -0.00000000000E+00 -0.13535099560E+01  0.19617311745E+01  0.14200000000E+01 0. -1.
       1023    2    1    2    0    0  0.00000000000E+00  0.00000000000E+00  0.58356539650E+02  0.61688663323E+02  0.20000136568E+02 0.  0.
        -11    1    3    3    0    0 -0.25954674793E+01 -0.96573738136E+01  0.29157576904E+02  0.30824756473E+02  0.51100000000E-03 0. -1.
         11    1    3    3    0    0  0.25954674793E+01  0.96573738136E+01  0.29198962746E+02  0.30863906851E+02  0.51100000000E-03 0.  1.
<mgrwt>
<rscale>  0 0.20000137E+02</rscale>
<asrwt>0</asrwt>
<pdfrwt beam="1">  1        4 0.92342462E-02 0.20000137E+02</pdfrwt>
<pdfrwt beam="2">  1       -4 0.25631721E-03 0.20000137E+02</pdfrwt>
<totfact> 0.11054342E+06</totfact>
</mgrwt>
</event>
<event>
 5    1  0.1154861E-006  0.2000331E+02  0.7818608E-02  0.1745262E+00
          4   -1    0    0  501    0  0.00000000000E+00  0.00000000000E+00  0.17903970343E+02  0.17960193597E+02  0.14200000000E+01 0.  1.
         -4   -1    0    0    0  501 -0.00000000000E+00 -0.00000000000E+00 -0.54307913450E+01  0.56133674949E+01  0.14200000000E+01 0. -1.
       1023    2    1    2    0    0  0.00000000000E+00  0.00000000000E+00  0.12473178998E+02  0.23573561092E+02  0.20003314431E+02 0.  0.
        -11    1    3    3    0    0 -0.14894730665E+01  0.98898304897E+01  0.61463015084E+01  0.11739007608E+02  0.51100000000E-03 0. -1.
         11    1    3    3    0    0  0.14894730665E+01 -0.98898304897E+01  0.63268774896E+01  0.11834553484E+02  0.51100000000E-03 0.  1.
<mgrwt>
<rscale>  0 0.20003314E+02</rscale>
<asrwt>0</asrwt>
<pdfrwt beam="1">  1        4 0.27728262E-02 0.20003314E+02</pdfrwt>
<pdfrwt beam="2">  1       -4 0.85387552E-03 0.20003314E+02</pdfrwt>
<totfact> 0.12801565E+06</totfact>
</mgrwt>
</event>
<event>
 5    1  0.1166066E-006  0.2000162E+02  0.7818608E-02  0.1745296E+00
         -4   -1    0    0    0  501 -0.00000000000E+00  0.00000000000E+00  0.31147136717E+01  0.34231332513E+01  0.14200000000E+01 0. -1.
          4   -1    0    0  501    0  0.00000000000E+00 -0.00000000000E+00 -0.30270233181E+02  0.30303521525E+02  0.14200000000E+01 0.  1.
       1023    2    1    2    0    0  0.00000000000E+00  0.00000000000E+00 -0.27155519509E+02  0.33726654776E+02  0.20001624999E+02 0.  0.
        -11    1    3    3    0    0 -0.43087514198E+01 -0.90245144158E+01 -0.13417339268E+02  0.16734162439E+02  0.51100000000E-03 0.  1.
         11    1    3    3    0    0  0.43087514198E+01  0.90245144158E+01 -0.13738180241E+02  0.16992492337E+02  0.51100000000E-03 0. -1.
<mgrwt>
<rscale>  0 0.20001625E+02</rscale>
<asrwt>0</asrwt>
<pdfrwt beam="2">  1        4 0.46832440E-02 0.20001625E+02</pdfrwt>
<pdfrwt beam="1">  1       -4 0.50547196E-03 0.20001625E+02</pdfrwt>
<totfact> 0.12263175E+06</totfact>
</mgrwt>
</event>
<event>
 5    1  0.1154861E-006  0.2000335E+02  0.7818608E-02  0.1745262E+00
         -4   -1    0    0    0  501 -0.00000000000E+00  0.00000000000E+00  0.82708411998E+02  0.82720600912E+02  0.14200000000E+01 0. -1.
          4   -1    0    0  501    0  0.00000000000E+00 -0.00000000000E+00 -0.77608372853E+00  0.16182416240E+01  0.14200000000E+01 0.  1.
       1023    2    1    2    0    0  0.00000000000E+00  0.00000000000E+00  0.81932328270E+02  0.84338842536E+02  0.20003348336E+02 0.  0.
        -11    1    3    3    0    0 -0.17702521584E+01 -0.98431017271E+01  0.41447657340E+02  0.42637175604E+02  0.51100000000E-03 0. -1.
         11    1    3    3    0    0  0.17702521584E+01  0.98431017271E+01  0.40484670930E+02  0.41701666932E+02  0.51100000000E-03 0.  1.
<mgrwt>
<rscale>  0 0.20003348E+02</rscale>
<asrwt>0</asrwt>
<pdfrwt beam="2">  1        4 0.18511644E-03 0.20003348E+02</pdfrwt>
<pdfrwt beam="1">  1       -4 0.12790093E-01 0.20003348E+02</pdfrwt>
<totfact> 0.10268144E+06</totfact>
</mgrwt>
</event>
<event>
 5    1  0.1154861E-006  0.2000047E+02  0.7818608E-02  0.1745319E+00
         -4   -1    0    0    0  501 -0.00000000000E+00  0.00000000000E+00  0.14551722309E+02  0.14620842047E+02  0.14200000000E+01 0.  1.
          4   -1    0    0  501    0  0.00000000000E+00 -0.00000000000E+00 -0.67125037437E+01  0.68610572443E+01  0.14200000000E+01 0. -1.
       1023    2    1    2    0    0  0.00000000000E+00  0.00000000000E+00  0.78392185651E+01  0.21481899291E+02  0.20000466230E+02 0.  0.
        -11    1    3    3    0    0  0.98632502998E+01 -0.16492257985E+01  0.39537418700E+01  0.10753405379E+02  0.51100000000E-03 0.  1.
         11    1    3    3    0    0 -0.98632502998E+01  0.16492257985E+01  0.38854766952E+01  0.10728493912E+02  0.51100000000E-03 0. -1.
<mgrwt>
<rscale>  0 0.20000466E+02</rscale>
<asrwt>0</asrwt>
<pdfrwt beam="2">  1        4 0.10494370E-02 0.20000466E+02</pdfrwt>
<pdfrwt beam="1">  1       -4 0.22554706E-02 0.20000466E+02</pdfrwt>
<totfact> 0.12925810E+06</totfact>
</mgrwt>
</event>
<event>
 5    1  0.1154861E-006  0.2000274E+02  0.7818608E-02  0.1745274E+00
          4   -1    0    0  501    0  0.00000000000E+00  0.00000000000E+00  0.42173796376E+01  0.44500214615E+01  0.14200000000E+01 0.  1.
         -4   -1    0    0    0  501 -0.00000000000E+00 -0.00000000000E+00 -0.22825982928E+02  0.22870109240E+02  0.14200000000E+01 0. -1.
       1023    2    1    2    0    0  0.00000000000E+00  0.00000000000E+00 -0.18608603291E+02  0.27320130701E+02  0.20002735441E+02 0.  0.
        -11    1    3    3    0    0 -0.50536132385E+01  0.86306482997E+01 -0.93262899839E+01  0.13675042302E+02  0.51100000000E-03 0.  1.
         11    1    3    3    0    0  0.50536132385E+01 -0.86306482997E+01 -0.92823133068E+01  0.13645088399E+02  0.51100000000E-03 0. -1.
<mgrwt>
<rscale>  0 0.20002735E+02</rscale>
<asrwt>0</asrwt>
<pdfrwt beam="1">  1        4 0.67011750E-03 0.20002735E+02</pdfrwt>
<pdfrwt beam="2">  1       -4 0.35329795E-02 0.20002735E+02</pdfrwt>
<totfact> 0.12594644E+06</totfact>
</mgrwt>
</event>
<event>
 5    1  0.1154861E-006  0.2000031E+02  0.7818608E-02  0.1745322E+00
          4   -1    0    0  501    0  0.00000000000E+00  0.00000000000E+00  0.15738817279E+02  0.15802745627E+02  0.14200000000E+01 0. -1.
         -4   -1    0    0    0  501 -0.00000000000E+00 -0.00000000000E+00 -0.61966342093E+01  0.63572537722E+01  0.14200000000E+01 0.  1.
       1023    2    1    2    0    0  0.00000000000E+00  0.00000000000E+00  0.95421830702E+01  0.22159999399E+02  0.20000307889E+02 0.  0.
        -11    1    3    3    0    0 -0.57801756471E+00 -0.99833969025E+01  0.48016491741E+01  0.11093157939E+02  0.51100000000E-03 0.  1.
         11    1    3    3    0    0  0.57801756471E+00  0.99833969025E+01  0.47405338961E+01  0.11066841460E+02  0.51100000000E-03 0. -1.
<mgrwt>
<rscale>  0 0.20000308E+02</rscale>
<asrwt>0</asrwt>
<pdfrwt beam="1">  1        4 0.24386294E-02 0.20000308E+02</pdfrwt>
<pdfrwt beam="2">  1       -4 0.97060125E-03 0.20000308E+02</pdfrwt>
<totfact> 0.12886543E+06</totfact>
</mgrwt>
</event>
<event>
 5    1  0.1195802E-006  0.2000101E+02  0.7818608E-02  0.1745308E+00
          4   -1    0    0  501    0  0.00000000000E+00  0.00000000000E+00  0.62516815772E+01  0.64109221289E+01  0.14200000000E+01 0.  1.
         -4   -1    0    0    0  501 -0.00000000000E+00 -0.00000000000E+00 -0.15604248501E+02  0.15668725899E+02  0.14200000000E+01 0. -1.
       1023    2    1    2    0    0  0.00000000000E+00  0.00000000000E+00 -0.93525669240E+01  0.22079648028E+02  0.20001008698E+02 0.  0.
        -11    1    3    3    0    0 -0.16912630031E+01 -0.98563856404E+01 -0.47172708292E+01  0.11057185572E+02  0.51100000000E-03 0. -1.
         11    1    3    3    0    0  0.16912630031E+01  0.98563856404E+01 -0.46352960948E+01  0.11022462456E+02  0.51100000000E-03 0.  1.
<mgrwt>
<rscale>  0 0.20001009E+02</rscale>
<asrwt>0</asrwt>
<pdfrwt beam="1">  1        4 0.97900624E-03 0.20001009E+02</pdfrwt>
<pdfrwt beam="2">  1       -4 0.24178627E-02 0.20001009E+02</pdfrwt>
<totfact> 0.12890277E+06</totfact>
</mgrwt>
</event>
<event>
 5    1  0.1154861E-006  0.2000056E+02  0.7818608E-02  0.1745317E+00
          4   -1    0    0  501    0  0.00000000000E+00  0.00000000000E+00  0.17177349755E+01  0.22286797540E+01  0.14200000000E+01 0. -1.
         -4   -1    0    0    0  501 -0.00000000000E+00 -0.00000000000E+00 -0.50159436606E+02  0.50179532487E+02  0.14200000000E+01 0.  1.
       1023    2    1    2    0    0  0.00000000000E+00  0.00000000000E+00 -0.48441701631E+02  0.52408212241E+02  0.20000556329E+02 0.  0.
        -11    1    3    3    0    0 -0.38301392879E+01 -0.92377251555E+01 -0.24206477096E+02  0.26190820275E+02  0.51100000000E-03 0. -1.
         11    1    3    3    0    0  0.38301392879E+01  0.92377251555E+01 -0.24235224535E+02  0.26217391966E+02  0.51100000000E-03 0.  1.
<mgrwt>
<rscale>  0 0.20000556E+02</rscale>
<asrwt>0</asrwt>
<pdfrwt beam="1">  1        4 0.30511624E-03 0.20000556E+02</pdfrwt>
<pdfrwt beam="2">  1       -4 0.77576847E-02 0.20000556E+02</pdfrwt>
<totfact> 0.11419472E+06</totfact>
</mgrwt>
</event>
<event>
 5    1  0.1154861E-006  0.2000256E+02  0.7818608E-02  0.1745277E+00
         -4   -1    0    0    0  501 -0.00000000000E+00  0.00000000000E+00  0.41355475637E+01  0.43725454430E+01  0.14200000000E+01 0. -1.
          4   -1    0    0  501    0  0.00000000000E+00 -0.00000000000E+00 -0.23253791626E+02  0.23297107653E+02  0.14200000000E+01 0.  1.
       1023    2    1    2    0    0  0.00000000000E+00  0.00000000000E+00 -0.19118244063E+02  0.27669653096E+02  0.20002560997E+02 0.  0.
        -11    1    3    3    0    0 -0.71828230259E+01 -0.69593287200E+01 -0.95870801800E+01  0.13854144127E+02  0.51100000000E-03 0. -1.
         11    1    3    3    0    0  0.71828230259E+01  0.69593287200E+01 -0.95311638827E+01  0.13815508969E+02  0.51100000000E-03 0.  1.
<mgrwt>
<rscale>  0 0.20002561E+02</rscale>
<asrwt>0</asrwt>
<pdfrwt beam="2">  1        4 0.35990689E-02 0.20002561E+02</pdfrwt>
<pdfrwt beam="1">  1       -4 0.65780071E-03 0.20002561E+02</pdfrwt>
<totfact> 0.12576018E+06</totfact>
</mgrwt>
</event>
<event>
 5    1  0.1175402E-006  0.2000142E+02  0.7818608E-02  0.1745300E+00
          4   -1    0    0  501    0  0.00000000000E+00  0.00000000000E+00  0.52337293245E+01  0.54229440936E+01  0.14200000000E+01 0. -1.
         -4   -1    0    0    0  501 -0.00000000000E+00 -0.00000000000E+00 -0.18553423209E+02  0.18607684240E+02  0.14200000000E+01 0.  1.
       1023    2    1    2    0    0  0.00000000000E+00  0.00000000000E+00 -0.13319693884E+02  0.24030628333E+02  0.20001421273E+02 0.  0.
        -11    1    3    3    0    0  0.46318289051E+01  0.88633939587E+01 -0.66897987453E+01  0.12031915849E+02  0.51100000000E-03 0. -1.
         11    1    3    3    0    0 -0.46318289051E+01 -0.88633939587E+01 -0.66298951390E+01  0.11998712485E+02  0.51100000000E-03 0.  1.
<mgrwt>
<rscale>  0 0.20001421E+02</rscale>
<asrwt>0</asrwt>
<pdfrwt beam="1">  1        4 0.82391804E-03 0.20001421E+02</pdfrwt>
<pdfrwt beam="2">  1       -4 0.28731017E-02 0.20001421E+02</pdfrwt>
<totfact> 0.12778182E+06</totfact>
</mgrwt>
</event>
<event>
 4    1  0.1154861E-006  0.2002656E+02  0.7818608E-02  0.1744800E+00
         -4   -1    0    0    0  501 -0.00000000000E+00  0.00000000000E+00  0.56339508256E+02  0.56357400494E+02  0.14200000000E+01 0.  1.
          4   -1    0    0  501    0  0.00000000000E+00 -0.00000000000E+00 -0.14752660985E+01  0.20476352364E+01  0.14200000000E+01 0. -1.
        -11    1    1    2    0    0 -0.32067286965E+01 -0.94854266874E+01  0.27714184385E+02  0.29467481141E+02  0.51100000000E-03 0. -1.
         11    1    1    2    0    0  0.32067286965E+01  0.94854266874E+01  0.27150057772E+02  0.28937554590E+02  0.51100000000E-03 0.  1.
<mgrwt>
<rscale>  0 0.20026561E+02</rscale>
<asrwt>0</asrwt>
<pdfrwt beam="2">  1        4 0.27236881E-03 0.20026561E+02</pdfrwt>
<pdfrwt beam="1">  1       -4 0.87130192E-02 0.20026561E+02</pdfrwt>
<totfact> 0.11150629E+06</totfact>
</mgrwt>
</event>
<event>
 5    1  0.1154861E-006  0.2000158E+02  0.7818608E-02  0.1745297E+00
         -4   -1    0    0    0  501 -0.00000000000E+00  0.00000000000E+00  0.61589201131E+02  0.61605568709E+02  0.14200000000E+01 0.  1.
          4   -1    0    0  501    0  0.00000000000E+00 -0.00000000000E+00 -0.12936597983E+01  0.19209257336E+01  0.14200000000E+01 0. -1.
       1023    2    1    2    0    0  0.00000000000E+00  0.00000000000E+00  0.60295541332E+02  0.63526494442E+02  0.20001579727E+02 0.  0.
        -11    1    3    3    0    0 -0.25302458808E+00 -0.99975460397E+01  0.30240333979E+02  0.31851102770E+02  0.51100000000E-03 0.  1.
         11    1    3    3    0    0  0.25302458808E+00  0.99975460397E+01  0.30055207353E+02  0.31675391672E+02  0.51100000000E-03 0. -1.
<mgrwt>
<rscale>  0 0.20001580E+02</rscale>
<asrwt>0</asrwt>
<pdfrwt beam="2">  1        4 0.24853489E-03 0.20001580E+02</pdfrwt>
<pdfrwt beam="1">  1       -4 0.95247705E-02 0.20001580E+02</pdfrwt>
<totfact> 0.10983762E+06</totfact>
</mgrwt>
</event>
<event>
 5    1  0.1154861E-006  0.2000029E+02  0.7818608E-02  0.1745322E+00
         -4   -1    0    0    0  501 -0.00000000000E+00  0.00000000000E+00  0.13205766374E+01  0.19391551395E+01  0.14200000000E+01 0. -1.
          4   -1    0    0  501    0  0.00000000000E+00 -0.00000000000E+00 -0.60728067132E+02  0.60744666742E+02  0.14200000000E+01 0.  1.
       1023    2    1    2    0    0  0.00000000000E+00  0.00000000000E+00 -0.59407490494E+02  0.62683821881E+02  0.20000289968E+02 0.  0.
        -11    1    3    3    0    0  0.62758429317E+01 -0.77855562974E+01 -0.29570476817E+02  0.31215608129E+02  0.51100000000E-03 0. -1.
         11    1    3    3    0    0 -0.62758429317E+01  0.77855562974E+01 -0.29837013677E+02  0.31468213753E+02  0.51100000000E-03 0.  1.
<mgrwt>
<rscale>  0 0.20000290E+02</rscale>
<asrwt>0</asrwt>
<pdfrwt beam="2">  1        4 0.93916376E-02 0.20000290E+02</pdfrwt>
<pdfrwt beam="1">  1       -4 0.25202554E-03 0.20000290E+02</pdfrwt>
<totfact> 0.11016682E+06</totfact>
</mgrwt>
</event>
<event>
 4    1  0.1154861E-006  0.2006892E+02  0.7818608E-02  0.1743961E+00
         -4   -1    0    0    0  501 -0.00000000000E+00  0.00000000000E+00  0.60533917560E+00  0.15436435850E+01  0.14200000000E+01 0. -1.
          4   -1    0    0  501    0  0.00000000000E+00 -0.00000000000E+00 -0.92763746146E+02  0.92774613980E+02  0.14200000000E+01 0.  1.
        -11    1    1    2    0    0 -0.20818424724E+01 -0.98106524654E+01 -0.44538559752E+02  0.45653765178E+02  0.51100000000E-03 0. -1.
         11    1    1    2    0    0  0.20818424724E+01  0.98106524654E+01 -0.47619847218E+02  0.48664492386E+02  0.51100000000E-03 0.  1.
<mgrwt>
<rscale>  0 0.20068925E+02</rscale>
<asrwt>0</asrwt>
<pdfrwt beam="2">  1        4 0.14344352E-01 0.20068925E+02</pdfrwt>
<pdfrwt beam="1">  1       -4 0.16614243E-03 0.20068925E+02</pdfrwt>
<totfact> 0.98978493E+05</totfact>
</mgrwt>
</event>
<event>
 5    1  0.1154861E-006  0.2001012E+02  0.7818608E-02  0.1745127E+00
         -4   -1    0    0    0  501 -0.00000000000E+00  0.00000000000E+00  0.50297421452E+01  0.52263472949E+01  0.14200000000E+01 0. -1.
          4   -1    0    0  501    0  0.00000000000E+00 -0.00000000000E+00 -0.19297161154E+02  0.19349336646E+02  0.14200000000E+01 0.  1.
       1023    2    1    2    0    0  0.00000000000E+00  0.00000000000E+00 -0.14267419009E+02  0.24575683940E+02  0.20010122337E+02 0.  0.
        -11    1    3    3    0    0  0.91339300489E+01 -0.40824291784E+01 -0.72315208543E+01  0.12344626372E+02  0.51100000000E-03 0.  1.
         11    1    3    3    0    0 -0.91339300489E+01  0.40824291784E+01 -0.70358981550E+01  0.12231057569E+02  0.51100000000E-03 0. -1.
<mgrwt>
<rscale>  0 0.20010122E+02</rscale>
<asrwt>0</asrwt>
<pdfrwt beam="2">  1        4 0.29879310E-02 0.20010122E+02</pdfrwt>
<pdfrwt beam="1">  1       -4 0.79294347E-03 0.20010122E+02</pdfrwt>
<totfact> 0.12736216E+06</totfact>
</mgrwt>
</event>
<event>
 5    1  0.1154861E-006  0.2000457E+02  0.7818608E-02  0.1745237E+00
         -4   -1    0    0    0  501 -0.00000000000E+00  0.00000000000E+00  0.18891632985E+01  0.23633319632E+01  0.14200000000E+01 0.  1.
          4   -1    0    0  501    0  0.00000000000E+00 -0.00000000000E+00 -0.46566501604E+02  0.46588147330E+02  0.14200000000E+01 0. -1.
       1023    2    1    2    0    0  0.00000000000E+00  0.00000000000E+00 -0.44677338305E+02  0.48951479293E+02  0.20004568651E+02 0.  0.
        -11    1    3    3    0    0  0.70459411705E+01 -0.70965143000E+01 -0.21849943970E+02  0.24029686929E+02  0.51100000000E-03 0. -1.
         11    1    3    3    0    0 -0.70459411705E+01  0.70965143000E+01 -0.22827394336E+02  0.24921792363E+02  0.51100000000E-03 0.  1.
<mgrwt>
<rscale>  0 0.20004569E+02</rscale>
<asrwt>0</asrwt>
<pdfrwt beam="2">  1        4 0.72022160E-02 0.20004569E+02</pdfrwt>
<pdfrwt beam="1">  1       -4 0.32878011E-03 0.20004569E+02</pdfrwt>
<totfact> 0.11559211E+06</totfact>
</mgrwt>
</event>
<event>
 5    1  0.1154861E-006  0.2000139E+02  0.7818608E-02  0.1745300E+00
         -4   -1    0    0    0  501 -0.00000000000E+00  0.00000000000E+00  0.78027792240E+00  0.16202572747E+01  0.14200000000E+01 0. -1.
          4   -1    0    0  501    0  0.00000000000E+00 -0.00000000000E+00 -0.82478089696E+02  0.82490312643E+02  0.14200000000E+01 0.  1.
       1023    2    1    2    0    0  0.00000000000E+00  0.00000000000E+00 -0.81697811774E+02  0.84110569918E+02  0.20001388033E+02 0.  0.
        -11    1    3    3    0    0 -0.99907615608E+01  0.43161718232E+00 -0.40383080411E+02  0.41602821944E+02  0.51100000000E-03 0.  1.
         11    1    3    3    0    0  0.99907615608E+01 -0.43161718232E+00 -0.41314731363E+02  0.42507747974E+02  0.51100000000E-03 0. -1.
<mgrwt>
<rscale>  0 0.20001388E+02</rscale>
<asrwt>0</asrwt>
<pdfrwt beam="2">  1        4 0.12754486E-01 0.20001388E+02</pdfrwt>
<pdfrwt beam="1">  1       -4 0.18559685E-03 0.20001388E+02</pdfrwt>
<totfact> 0.10277392E+06</totfact>
</mgrwt>
</event>
<event>
 4    1  0.1154861E-006  0.2006062E+02  0.7818608E-02  0.1744125E+00
          4   -1    0    0  501    0  0.00000000000E+00  0.00000000000E+00  0.36143361684E+01  0.38832751562E+01  0.14200000000E+01 0. -1.
         -4   -1    0    0    0  501 -0.00000000000E+00 -0.00000000000E+00 -0.26548506858E+02  0.26586455506E+02  0.14200000000E+01 0.  1.
        -11    1    1    2    0    0 -0.90527995170E+01  0.42671865206E+01 -0.10453846622E+02  0.14472213699E+02  0.51100000000E-03 0. -1.
         11    1    1    2    0    0  0.90527995170E+01 -0.42671865206E+01 -0.12480324067E+02  0.15997516963E+02  0.51100000000E-03 0.  1.
<mgrwt>
<rscale>  0 0.20060616E+02</rscale>
<asrwt>0</asrwt>
<pdfrwt beam="1">  1        4 0.57965848E-03 0.20060616E+02</pdfrwt>
<pdfrwt beam="2">  1       -4 0.41079923E-02 0.20060616E+02</pdfrwt>
<totfact> 0.12355056E+06</totfact>
</mgrwt>
</event>
<event>
 5    1  0.1154861E-006  0.2000209E+02  0.7818608E-02  0.1745287E+00
          4   -1    0    0  501    0  0.00000000000E+00  0.00000000000E+00  0.51343307249E+00  0.15099713639E+01  0.14200000000E+01 0.  1.
         -4   -1    0    0    0  501 -0.00000000000E+00 -0.00000000000E+00 -0.97859740292E+02  0.97870042250E+02  0.14200000000E+01 0. -1.
       1023    2    1    2    0    0  0.00000000000E+00  0.00000000000E+00 -0.97346307219E+02  0.99380013614E+02  0.20002089307E+02 0.  0.
        -11    1    3    3    0    0 -0.94053918452E+01 -0.33980838653E+01 -0.48117123482E+02  0.49145355245E+02  0.51100000000E-03 0. -1.
         11    1    3    3    0    0  0.94053918452E+01  0.33980838653E+01 -0.49229183738E+02  0.50234658369E+02  0.51100000000E-03 0.  1.
<mgrwt>
<rscale>  0 0.20002089E+02</rscale>
<asrwt>0</asrwt>
<pdfrwt beam="1">  1        4 0.15643903E-03 0.20002089E+02</pdfrwt>
<pdfrwt beam="2">  1       -4 0.15132786E-01 0.20002089E+02</pdfrwt>
<totfact> 0.98168937E+05</totfact>
</mgrwt>
</event>
<event>
 5    1  0.1154861E-006  0.2000065E+02  0.7818608E-02  0.1745315E+00
         -4   -1    0    0    0  501 -0.00000000000E+00  0.00000000000E+00  0.12839440408E+01  0.19143960667E+01  0.14200000000E+01 0. -1.
          4   -1    0    0  501    0  0.00000000000E+00 -0.00000000000E+00 -0.61896287505E+02  0.61912573900E+02  0.14200000000E+01 0.  1.
       1023    2    1    2    0    0  0.00000000000E+00  0.00000000000E+00 -0.60612343465E+02  0.63826969967E+02  0.20000647862E+02 0.  0.
        -11    1    3    3    0    0  0.29647763281E+01  0.95504510318E+01 -0.30542083881E+02  0.32137515486E+02  0.51100000000E-03 0. -1.
         11    1    3    3    0    0 -0.29647763281E+01 -0.95504510318E+01 -0.30070259583E+02  0.31689454480E+02  0.51100000000E-03 0.  1.
<mgrwt>
<rscale>  0 0.20000648E+02</rscale>
<asrwt>0</asrwt>
<pdfrwt beam="2">  1        4 0.95722530E-02 0.20000648E+02</pdfrwt>
<pdfrwt beam="1">  1       -4 0.24727901E-03 0.20000648E+02</pdfrwt>
<totfact> 0.10973614E+06</totfact>
</mgrwt>
</event>
<event>
 5    1  0.1155689E-006  0.2000116E+02  0.7818608E-02  0.1745305E+00
         -4   -1    0    0    0  501 -0.00000000000E+00  0.00000000000E+00  0.20548639960E+01  0.24977722158E+01  0.14200000000E+01 0.  1.
          4   -1    0    0  501    0  0.00000000000E+00 -0.00000000000E+00 -0.43480040152E+02  0.43503221624E+02  0.14200000000E+01 0. -1.
       1023    2    1    2    0    0  0.00000000000E+00  0.00000000000E+00 -0.41425176156E+02  0.46000993840E+02  0.20001155333E+02 0.  0.
        -11    1    3    3    0    0 -0.70974704203E+01  0.70453750277E+01 -0.20683701306E+02  0.22974483577E+02  0.51100000000E-03 0. -1.
         11    1    3    3    0    0  0.70974704203E+01 -0.70453750277E+01 -0.20741474850E+02  0.23026510263E+02  0.51100000000E-03 0.  1.
<mgrwt>
<rscale>  0 0.20001155E+02</rscale>
<asrwt>0</asrwt>
<pdfrwt beam="2">  1        4 0.67250894E-02 0.20001155E+02</pdfrwt>
<pdfrwt beam="1">  1       -4 0.35198601E-03 0.20001155E+02</pdfrwt>
<totfact> 0.11690408E+06</totfact>
</mgrwt>
</event>
<event>
 5    1  0.1218811E-006  0.2000129E+02  0.7818608E-02  0.1745302E+00
          4   -1    0    0  501    0  0.00000000000E+00  0.00000000000E+00  0.23544477902E+02  0.23587260114E+02  0.14200000000E+01 0. -1.
         -4   -1    0    0    0  501 -0.00000000000E+00 -0.00000000000E+00 -0.40810902642E+01  0.43210759938E+01  0.14200000000E+01 0.  1.
       1023    2    1    2    0    0  0.00000000000E+00  0.00000000000E+00  0.19463387638E+02  0.27908336108E+02  0.20001294107E+02 0.  0.
        -11    1    3    3    0    0  0.70788663939E+01 -0.70633327789E+01  0.95793419124E+01  0.13847917212E+02  0.51100000000E-03 0.  1.
         11    1    3    3    0    0 -0.70788663939E+01  0.70633327789E+01  0.98840457259E+01  0.14060418896E+02  0.51100000000E-03 0. -1.
<mgrwt>
<rscale>  0 0.20001294E+02</rscale>
<asrwt>0</asrwt>
<pdfrwt beam="1">  1        4 0.36439787E-02 0.20001294E+02</pdfrwt>
<pdfrwt beam="2">  1       -4 0.64961143E-03 0.20001294E+02</pdfrwt>
<totfact> 0.12564812E+06</totfact>
</mgrwt>
</event>
<event>
 5    1  0.1216914E-006  0.2000084E+02  0.7818608E-02  0.1745311E+00
          4   -1    0    0  501    0  0.00000000000E+00  0.00000000000E+00  0.77597031764E+01  0.78885609198E+01  0.14200000000E+01 0. -1.
         -4   -1    0    0    0  501 -0.00000000000E+00 -0.00000000000E+00 -0.12613017395E+02  0.12692698996E+02  0.14200000000E+01 0.  1.
       1023    2    1    2    0    0  0.00000000000E+00  0.00000000000E+00 -0.48533142184E+01  0.20581259916E+02  0.20000840003E+02 0.  0.
        -11    1    3    3    0    0 -0.41132141153E+01 -0.91153302209E+01 -0.24523733389E+01  0.10296694161E+02  0.51100000000E-03 0.  1.
         11    1    3    3    0    0  0.41132141153E+01  0.91153302209E+01 -0.24009408795E+01  0.10284565755E+02  0.51100000000E-03 0. -1.
<mgrwt>
<rscale>  0 0.20000840E+02</rscale>
<asrwt>0</asrwt>
<pdfrwt beam="1">  1        4 0.12098420E-02 0.20000840E+02</pdfrwt>
<pdfrwt beam="2">  1       -4 0.19565057E-02 0.20000840E+02</pdfrwt>
<totfact> 0.12978401E+06</totfact>
</mgrwt>
</event>
<event>
 5    1  0.1154861E-006  0.2000044E+02  0.7818608E-02  0.1745319E+00
         -4   -1    0    0    0  501 -0.00000000000E+00  0.00000000000E+00  0.29242511167E+01  0.32507913796E+01  0.14200000000E+01 0.  1.
          4   -1    0    0  501    0  0.00000000000E+00 -0.00000000000E+00 -0.32046766852E+02  0.32078211696E+02  0.14200000000E+01 0. -1.
       1023    2    1    2    0    0  0.00000000000E+00  0.00000000000E+00 -0.29122515735E+02  0.35329003076E+02  0.20000438385E+02 0.  0.
        -11    1    3    3    0    0 -0.75278193898E+01  0.65827790812E+01 -0.14459195904E+02  0.17580369497E+02  0.51100000000E-03 0.  1.
         11    1    3    3    0    0  0.75278193898E+01 -0.65827790812E+01 -0.14663319830E+02  0.17748633579E+02  0.51100000000E-03 0. -1.
<mgrwt>
<rscale>  0 0.20000438E+02</rscale>
<asrwt>0</asrwt>
<pdfrwt beam="2">  1        4 0.49578089E-02 0.20000438E+02</pdfrwt>
<pdfrwt beam="1">  1       -4 0.47742213E-03 0.20000438E+02</pdfrwt>
<totfact> 0.12185270E+06</totfact>
</mgrwt>
</event>
<event>
 5    1  0.1193828E-006  0.2000096E+02  0.7818608E-02  0.1745309E+00
         -4   -1    0    0    0  501 -0.00000000000E+00  0.00000000000E+00  0.13236117541E+02  0.13312069995E+02  0.14200000000E+01 0. -1.
          4   -1    0    0  501    0  0.00000000000E+00 -0.00000000000E+00 -0.73904552262E+01  0.75256380760E+01  0.14200000000E+01 0.  1.
       1023    2    1    2    0    0  0.00000000000E+00  0.00000000000E+00  0.58456623148E+01  0.20837708071E+02  0.20000957721E+02 0.  0.
        -11    1    3    3    0    0  0.84724054375E+01 -0.53127646731E+01  0.28712123230E+01  0.10404373255E+02  0.51100000000E-03 0. -1.
         11    1    3    3    0    0 -0.84724054375E+01  0.53127646731E+01  0.29744499918E+01  0.10433334816E+02  0.51100000000E-03 0.  1.
<mgrwt>
<rscale>  0 0.20000958E+02</rscale>
<asrwt>0</asrwt>
<pdfrwt beam="2">  1        4 0.11532343E-02 0.20000958E+02</pdfrwt>
<pdfrwt beam="1">  1       -4 0.20525669E-02 0.20000958E+02</pdfrwt>
<totfact> 0.12963077E+06</totfact>
</mgrwt>
</event>
<event>
 5    1  0.1154861E-006  0.2000358E+02  0.7818608E-02  0.1745257E+00
          4   -1    0    0  501    0  0.00000000000E+00  0.00000000000E+00  0.22110122155E+02  0.22155674256E+02  0.14200000000E+01 0. -1.
         -4   -1    0    0    0  501 -0.00000000000E+00 -0.00000000000E+00 -0.43614385783E+01  0.45867795317E+01  0.14200000000E+01 0.  1.
       1023    2    1    2    0    0  0.00000000000E+00  0.00000000000E+00  0.17748683577E+02  0.26742453787E+02  0.20003576327E+02 0.  0.
        -11    1    3    3    0    0  0.80208152667E+00 -0.99689756248E+01  0.90205238746E+01  0.13468246397E+02  0.51100000000E-03 0.  1.
         11    1    3    3    0    0 -0.80208152667E+00  0.99689756248E+01  0.87281597025E+01  0.13274207390E+02  0.51100000000E-03 0. -1.
<mgrwt>
<rscale>  0 0.20003576E+02</rscale>
<asrwt>0</asrwt>
<pdfrwt beam="1">  1        4 0.34223952E-02 0.20003576E+02</pdfrwt>
<pdfrwt beam="2">  1       -4 0.69182848E-03 0.20003576E+02</pdfrwt>
<totfact> 0.12624911E+06</totfact>
</mgrwt>
</event>
<event>
 5    1  0.1154861E-006  0.2000028E+02  0.7818608E-02  0.1745323E+00
          4   -1    0    0  501    0  0.00000000000E+00  0.00000000000E+00  0.34624922578E+02  0.34654028099E+02  0.14200000000E+01 0.  1.
         -4   -1    0    0    0  501 -0.00000000000E+00 -0.00000000000E+00 -0.26813845442E+01  0.30341758475E+01  0.14200000000E+01 0. -1.
       1023    2    1    2    0    0  0.00000000000E+00  0.00000000000E+00  0.31943538034E+02  0.37688203947E+02  0.20000277364E+02 0.  0.
        -11    1    3    3    0    0 -0.30720591917E+01  0.95165264322E+01  0.15913676552E+02  0.18794864316E+02  0.51100000000E-03 0.  1.
         11    1    3    3    0    0  0.30720591917E+01 -0.95165264322E+01  0.16029861482E+02  0.18893339631E+02  0.51100000000E-03 0. -1.
<mgrwt>
<rscale>  0 0.20000277E+02</rscale>
<asrwt>0</asrwt>
<pdfrwt beam="1">  1        4 0.53562878E-02 0.20000277E+02</pdfrwt>
<pdfrwt beam="2">  1       -4 0.44189738E-03 0.20000277E+02</pdfrwt>
<totfact> 0.12071261E+06</totfact>
</mgrwt>
</event>
<event>
 5    1  0.1154861E-006  0.2000303E+02  0.7818608E-02  0.1745268E+00
         -4   -1    0    0    0  501 -0.00000000000E+00  0.00000000000E+00  0.32474465359E+02  0.32505496464E+02  0.14200000000E+01 0.  1.
          4   -1    0    0  501    0  0.00000000000E+00 -0.00000000000E+00 -0.28822893508E+01  0.32130969331E+01  0.14200000000E+01 0. -1.
       1023    2    1    2    0    0  0.00000000000E+00  0.00000000000E+00  0.29592176009E+02  0.35718593397E+02  0.20003025605E+02 0.  0.
        -11    1    3    3    0    0 -0.47468780715E+01  0.88031172515E+01  0.14885963763E+02  0.17933757057E+02  0.51100000000E-03 0. -1.
         11    1    3    3    0    0  0.47468780715E+01 -0.88031172515E+01  0.14706212246E+02  0.17784836340E+02  0.51100000000E-03 0.  1.
<mgrwt>
<rscale>  0 0.20003026E+02</rscale>
<asrwt>0</asrwt>
<pdfrwt beam="2">  1        4 0.47126286E-03 0.20003026E+02</pdfrwt>
<pdfrwt beam="1">  1       -4 0.50239055E-02 0.20003026E+02</pdfrwt>
<totfact> 0.12163004E+06</totfact>
</mgrwt>
</event>
<event>
 5    1  0.1154861E-006  0.2000024E+02  0.7818608E-02  0.1745323E+00
         -4   -1    0    0    0  501 -0.00000000000E+00  0.00000000000E+00  0.39517192149E+02  0.39542696865E+02  0.14200000000E+01 0.  1.
          4   -1    0    0  501    0  0.00000000000E+00 -0.00000000000E+00 -0.23029195078E+01  0.27055199610E+01  0.14200000000E+01 0. -1.
       1023    2    1    2    0    0  0.00000000000E+00  0.00000000000E+00  0.37214272641E+02  0.42248216826E+02  0.20000243417E+02 0.  0.
        -11    1    3    3    0    0  0.80326754406E+01  0.59563413981E+01  0.18656960918E+02  0.21167996328E+02  0.51100000000E-03 0.  1.
         11    1    3    3    0    0 -0.80326754406E+01 -0.59563413981E+01  0.18557311723E+02  0.21080220498E+02  0.51100000000E-03 0. -1.
<mgrwt>
<rscale>  0 0.20000243E+02</rscale>
<asrwt>0</asrwt>
<pdfrwt beam="2">  1        4 0.38722649E-03 0.20000243E+02</pdfrwt>
<pdfrwt beam="1">  1       -4 0.61124990E-02 0.20000243E+02</pdfrwt>
<totfact> 0.11858941E+06</totfact>
</mgrwt>
</event>
<event>
 5    1  0.1168885E-006  0.2000165E+02  0.7818608E-02  0.1745295E+00
          4   -1    0    0  501    0  0.00000000000E+00  0.00000000000E+00  0.15656260299E+02  0.15720524372E+02  0.14200000000E+01 0. -1.
         -4   -1    0    0    0  501 -0.00000000000E+00 -0.00000000000E+00 -0.62308813178E+01  0.63906401867E+01  0.14200000000E+01 0.  1.
       1023    2    1    2    0    0  0.00000000000E+00  0.00000000000E+00  0.94253789810E+01  0.22111164559E+02  0.20001645663E+02 0.  0.
        -11    1    3    3    0    0 -0.80094803687E+01  0.59874830306E+01  0.48468488973E+01  0.11112770731E+02  0.51100000000E-03 0. -1.
         11    1    3    3    0    0  0.80094803687E+01 -0.59874830306E+01  0.45785300838E+01  0.10998393828E+02  0.51100000000E-03 0.  1.
<mgrwt>
<rscale>  0 0.20001646E+02</rscale>
<asrwt>0</asrwt>
<pdfrwt beam="1">  1        4 0.24258880E-02 0.20001646E+02</pdfrwt>
<pdfrwt beam="2">  1       -4 0.97582966E-03 0.20001646E+02</pdfrwt>
<totfact> 0.12887613E+06</totfact>
</mgrwt>
</event>
<event>
 4    1  0.1154861E-006  0.2002813E+02  0.7818608E-02  0.1744769E+00
          4   -1    0    0  501    0  0.00000000000E+00  0.00000000000E+00  0.44146952550E+01  0.46374491042E+01  0.14200000000E+01 0.  1.
         -4   -1    0    0    0  501 -0.00000000000E+00 -0.00000000000E+00 -0.21910111468E+02  0.21956078532E+02  0.14200000000E+01 0. -1.
        -11    1    1    2    0    0 -0.92647477625E+01  0.37934778802E+01 -0.90605335440E+01  0.13502566197E+02  0.51100000000E-03 0. -1.
         11    1    1    2    0    0  0.92647477625E+01 -0.37934778802E+01 -0.84348826686E+01  0.13090961440E+02  0.51100000000E-03 0.  1.
<mgrwt>
<rscale>  0 0.20028133E+02</rscale>
<asrwt>0</asrwt>
<pdfrwt beam="1">  1        4 0.69985474E-03 0.20028133E+02</pdfrwt>
<pdfrwt beam="2">  1       -4 0.33914572E-02 0.20028133E+02</pdfrwt>
<totfact> 0.12601524E+06</totfact>
</mgrwt>
</event>
<event>
 5    1  0.1154861E-006  0.2000441E+02  0.7818608E-02  0.1745240E+00
          4   -1    0    0  501    0  0.00000000000E+00  0.00000000000E+00  0.32747889025E+01  0.35694036415E+01  0.14200000000E+01 0.  1.
         -4   -1    0    0    0  501 -0.00000000000E+00 -0.00000000000E+00 -0.28921972300E+02  0.28956810627E+02  0.14200000000E+01 0. -1.
       1023    2    1    2    0    0  0.00000000000E+00  0.00000000000E+00 -0.25647183397E+02  0.32526214269E+02  0.20004414474E+02 0.  0.
        -11    1    3    3    0    0 -0.95004580523E+01 -0.31217204155E+01 -0.13150030825E+02  0.16520507030E+02  0.51100000000E-03 0.  1.
         11    1    3    3    0    0  0.95004580523E+01  0.31217204155E+01 -0.12497152572E+02  0.16005707239E+02  0.51100000000E-03 0. -1.
<mgrwt>
<rscale>  0 0.20004414E+02</rscale>
<asrwt>0</asrwt>
<pdfrwt beam="1">  1        4 0.52915624E-03 0.20004414E+02</pdfrwt>
<pdfrwt beam="2">  1       -4 0.44748766E-02 0.20004414E+02</pdfrwt>
<totfact> 0.12320154E+06</totfact>
</mgrwt>
</event>
<event>
 5    1  0.1154861E-006  0.2000753E+02  0.7818608E-02  0.1745178E+00
         -4   -1    0    0    0  501 -0.00000000000E+00  0.00000000000E+00  0.12222100412E+01  0.18735520769E+01  0.14200000000E+01 0.  1.
          4   -1    0    0  501    0  0.00000000000E+00 -0.00000000000E+00 -0.63992223402E+02  0.64007976502E+02  0.14200000000E+01 0. -1.
       1023    2    1    2    0    0  0.00000000000E+00  0.00000000000E+00 -0.62770013361E+02  0.65881528579E+02  0.20007529348E+02 0.  0.
        -11    1    3    3    0    0 -0.19881587503E+01  0.98041769489E+01 -0.31301279541E+02  0.32860991494E+02  0.51100000000E-03 0. -1.
         11    1    3    3    0    0  0.19881587503E+01 -0.98041769489E+01 -0.31468733820E+02  0.33020537085E+02  0.51100000000E-03 0.  1.
<mgrwt>
<rscale>  0 0.20007529E+02</rscale>
<asrwt>0</asrwt>
<pdfrwt beam="2">  1        4 0.98962704E-02 0.20007529E+02</pdfrwt>
<pdfrwt beam="1">  1       -4 0.23934737E-03 0.20007529E+02</pdfrwt>
<totfact> 0.10890422E+06</totfact>
</mgrwt>
</event>
<event>
 5    1  0.1154861E-006  0.2000059E+02  0.7818608E-02  0.1745316E+00
          4   -1    0    0  501    0  0.00000000000E+00  0.00000000000E+00  0.24796242124E+02  0.24836868230E+02  0.14200000000E+01 0.  1.
         -4   -1    0    0    0  501 -0.00000000000E+00 -0.00000000000E+00 -0.38627051380E+01  0.41154454173E+01  0.14200000000E+01 0. -1.
       1023    2    1    2    0    0  0.00000000000E+00  0.00000000000E+00  0.20933536986E+02  0.28952313647E+02  0.20000587361E+02 0.  0.
        -11    1    3    3    0    0  0.74154046350E+01 -0.67093291223E+01  0.10539871116E+02  0.14529012581E+02  0.51100000000E-03 0.  1.
         11    1    3    3    0    0 -0.74154046350E+01  0.67093291223E+01  0.10393665870E+02  0.14423301066E+02  0.51100000000E-03 0. -1.
<mgrwt>
<rscale>  0 0.20000587E+02</rscale>
<asrwt>0</asrwt>
<pdfrwt beam="1">  1        4 0.38373732E-02 0.20000587E+02</pdfrwt>
<pdfrwt beam="2">  1       -4 0.61682896E-03 0.20000587E+02</pdfrwt>
<totfact> 0.12510080E+06</totfact>
</mgrwt>
</event>
<event>
 5    1  0.1154861E-006  0.2000030E+02  0.7818608E-02  0.1745322E+00
          4   -1    0    0  501    0  0.00000000000E+00  0.00000000000E+00  0.66229145413E+00  0.15668535255E+01  0.14200000000E+01 0. -1.
         -4   -1    0    0    0  501 -0.00000000000E+00 -0.00000000000E+00 -0.88810671729E+02  0.88822023242E+02  0.14200000000E+01 0.  1.
       1023    2    1    2    0    0  0.00000000000E+00  0.00000000000E+00 -0.88148380274E+02  0.90388876768E+02  0.20000302457E+02 0.  0.
        -11    1    3    3    0    0 -0.98038775579E+01  0.19715223362E+01 -0.44121338197E+02  0.45240417771E+02  0.51100000000E-03 0.  1.
         11    1    3    3    0    0  0.98038775579E+01 -0.19715223362E+01 -0.44027042077E+02  0.45148458997E+02  0.51100000000E-03 0. -1.
<mgrwt>
<rscale>  0 0.20000302E+02</rscale>
<asrwt>0</asrwt>
<pdfrwt beam="1">  1        4 0.17234595E-03 0.20000302E+02</pdfrwt>
<pdfrwt beam="2">  1       -4 0.13733630E-01 0.20000302E+02</pdfrwt>
<totfact> 0.10083574E+06</totfact>
</mgrwt>
</event>
<event>
 5    1  0.1154861E-006  0.2000030E+02  0.7818608E-02  0.1745322E+00
         -4   -1    0    0    0  501 -0.00000000000E+00  0.00000000000E+00  0.16895563106E+02  0.16955130571E+02  0.14200000000E+01 0. -1.
          4   -1    0    0  501    0  0.00000000000E+00 -0.00000000000E+00 -0.57625681113E+01  0.59349466078E+01  0.14200000000E+01 0.  1.
       1023    2    1    2    0    0  0.00000000000E+00  0.00000000000E+00  0.11132994995E+02  0.22890077178E+02  0.20000301390E+02 0.  0.
        -11    1    3    3    0    0  0.89903005360E+01 -0.43792038175E+01  0.55560170667E+01  0.11439941246E+02  0.51100000000E-03 0.  1.
         11    1    3    3    0    0 -0.89903005360E+01  0.43792038175E+01  0.55769779279E+01  0.11450135933E+02  0.51100000000E-03 0. -1.
<mgrwt>
<rscale>  0 0.20000301E+02</rscale>
<asrwt>0</asrwt>
<pdfrwt beam="2">  1        4 0.90439093E-03 0.20000301E+02</pdfrwt>
<pdfrwt beam="1">  1       -4 0.26171594E-02 0.20000301E+02</pdfrwt>
<totfact> 0.12844478E+06</totfact>
</mgrwt>
</event>
<event>
 5    1  0.1154861E-006  0.2000078E+02  0.7818608E-02  0.1745313E+00
          4   -1    0    0  501    0  0.00000000000E+00  0.00000000000E+00  0.55288031251E+02  0.55306263657E+02  0.14200000000E+01 0.  1.
         -4   -1    0    0    0  501 -0.00000000000E+00 -0.00000000000E+00 -0.15086960558E+01  0.20718503297E+01  0.14200000000E+01 0. -1.
       1023    2    1    2    0    0  0.00000000000E+00  0.00000000000E+00  0.53779335196E+02  0.57378113986E+02  0.20000776749E+02 0.  0.
        -11    1    3    3    0    0  0.44704846830E+01 -0.89455076896E+01  0.26948896251E+02  0.28744570801E+02  0.51100000000E-03 0.  1.
         11    1    3    3    0    0 -0.44704846830E+01  0.89455076896E+01  0.26830438944E+02  0.28633543185E+02  0.51100000000E-03 0. -1.
<mgrwt>
<rscale>  0 0.20000777E+02</rscale>
<asrwt>0</asrwt>
<pdfrwt beam="1">  1        4 0.85505716E-02 0.20000777E+02</pdfrwt>
<pdfrwt beam="2">  1       -4 0.27682918E-03 0.20000777E+02</pdfrwt>
<totfact> 0.11219696E+06</totfact>
</mgrwt>
</event>
<event>
 5    1  0.1157138E-006  0.2000073E+02  0.7818608E-02  0.1745314E+00
          4   -1    0    0  501    0  0.00000000000E+00  0.00000000000E+00  0.29869122237E+02  0.29902857108E+02  0.14200000000E+01 0.  1.
         -4   -1    0    0    0  501 -0.00000000000E+00 -0.00000000000E+00 -0.31602913694E+01  0.34646560492E+01  0.14200000000E+01 0. -1.
       1023    2    1    2    0    0  0.00000000000E+00  0.00000000000E+00  0.26708830868E+02  0.33367513157E+02  0.20000732186E+02 0.  0.
        -11    1    3    3    0    0  0.40047606158E+01  0.91634716568E+01  0.13356343007E+02  0.16685299493E+02  0.51100000000E-03 0.  1.
         11    1    3    3    0    0 -0.40047606158E+01 -0.91634716568E+01  0.13352487861E+02  0.16682213664E+02  0.51100000000E-03 0. -1.
<mgrwt>
<rscale>  0 0.20000732E+02</rscale>
<asrwt>0</asrwt>
<pdfrwt beam="1">  1        4 0.46212573E-02 0.20000732E+02</pdfrwt>
<pdfrwt beam="2">  1       -4 0.51220632E-03 0.20000732E+02</pdfrwt>
<totfact> 0.12282286E+06</totfact>
</mgrwt>
</event>
<event>
 5    1  0.1168959E-006  0.2000143E+02  0.7818608E-02  0.1745300E+00
          4   -1    0    0  501    0  0.00000000000E+00  0.00000000000E+00  0.39993276106E+01  0.42439393654E+01  0.14200000000E+01 0. -1.
         -4   -1    0    0    0  501 -0.00000000000E+00 -0.00000000000E+00 -0.23999471429E+02  0.24041443985E+02  0.14200000000E+01 0.  1.
       1023    2    1    2    0    0  0.00000000000E+00  0.00000000000E+00 -0.20000143818E+02  0.28285383350E+02  0.20001428912E+02 0.  0.
        -11    1    3    3    0    0 -0.26370215332E+01  0.96466004654E+01 -0.99163338091E+01  0.14083481799E+02  0.51100000000E-03 0. -1.
         11    1    3    3    0    0  0.26370215332E+01 -0.96466004654E+01 -0.10083810009E+02  0.14201901551E+02  0.51100000000E-03 0.  1.
<mgrwt>
<rscale>  0 0.20001429E+02</rscale>
<asrwt>0</asrwt>
<pdfrwt beam="1">  1        4 0.63732613E-03 0.20001429E+02</pdfrwt>
<pdfrwt beam="2">  1       -4 0.37142712E-02 0.20001429E+02</pdfrwt>
<totfact> 0.12544461E+06</totfact>
</mgrwt>
</event>
<event>
 4    1  0.1154861E-006  0.2001748E+02  0.7818608E-02  0.1744981E+00
          4   -1    0    0  501    0  0.00000000000E+00  0.00000000000E+00  0.12888577668E+02  0.12966566018E+02  0.14200000000E+01 0.  1.
         -4   -1    0    0    0  501 -0.00000000000E+00 -0.00000000000E+00 -0.76050309358E+01  0.77364653127E+01  0.14200000000E+01 0. -1.
        -11    1    1    2    0    0  0.96236920069E+01 -0.27426479989E+01  0.24419094910E+01  0.10300509119E+02  0.51100000000E-03 0.  1.
         11    1    1    2    0    0 -0.96236920069E+01  0.27426479989E+01  0.28416372410E+01  0.10402522211E+02  0.51100000000E-03 0. -1.
<mgrwt>
<rscale>  0 0.20017483E+02</rscale>
<asrwt>0</asrwt>
<pdfrwt beam="1">  1        4 0.19989675E-02 0.20017483E+02</pdfrwt>
<pdfrwt beam="2">  1       -4 0.11861142E-02 0.20017483E+02</pdfrwt>
<totfact> 0.12949207E+06</totfact>
</mgrwt>
</event>
<event>
 5    1  0.1154861E-006  0.2000281E+02  0.7818608E-02  0.1745272E+00
          4   -1    0    0  501    0  0.00000000000E+00  0.00000000000E+00  0.17399466252E+02  0.17457314394E+02  0.14200000000E+01 0.  1.
         -4   -1    0    0    0  501 -0.00000000000E+00 -0.00000000000E+00 -0.55926544538E+01  0.57701112502E+01  0.14200000000E+01 0. -1.
       1023    2    1    2    0    0  0.00000000000E+00  0.00000000000E+00  0.11806811798E+02  0.23227425644E+02  0.20002812233E+02 0.  0.
        -11    1    3    3    0    0  0.10000110593E+02 -0.71940526832E-01  0.57361889798E+01  0.11528714221E+02  0.51100000000E-03 0. -1.
         11    1    3    3    0    0 -0.10000110593E+02  0.71940526832E-01  0.60706228182E+01  0.11698711423E+02  0.51100000000E-03 0.  1.
<mgrwt>
<rscale>  0 0.20002812E+02</rscale>
<asrwt>0</asrwt>
<pdfrwt beam="1">  1        4 0.26949413E-02 0.20002812E+02</pdfrwt>
<pdfrwt beam="2">  1       -4 0.87850876E-03 0.20002812E+02</pdfrwt>
<totfact> 0.12821908E+06</totfact>
</mgrwt>
</event>
<event>
 5    1  0.1154861E-006  0.2000038E+02  0.7818608E-02  0.1745320E+00
          4   -1    0    0  501    0  0.00000000000E+00  0.00000000000E+00  0.34835221022E+02  0.34864150981E+02  0.14200000000E+01 0.  1.
         -4   -1    0    0    0  501 -0.00000000000E+00 -0.00000000000E+00 -0.26631087414E+01  0.30180371384E+01  0.14200000000E+01 0. -1.
       1023    2    1    2    0    0  0.00000000000E+00  0.00000000000E+00  0.32172112280E+02  0.37882188119E+02  0.20000384200E+02 0.  0.
        -11    1    3    3    0    0 -0.97701661037E+01 -0.21322051342E+01  0.16156858652E+02  0.19001224334E+02  0.51100000000E-03 0. -1.
         11    1    3    3    0    0  0.97701661037E+01  0.21322051342E+01  0.16015253629E+02  0.18880963786E+02  0.51100000000E-03 0.  1.
<mgrwt>
<rscale>  0 0.20000384E+02</rscale>
<asrwt>0</asrwt>
<pdfrwt beam="1">  1        4 0.53887922E-02 0.20000384E+02</pdfrwt>
<pdfrwt beam="2">  1       -4 0.43923661E-03 0.20000384E+02</pdfrwt>
<totfact> 0.12061876E+06</totfact>
</mgrwt>
</event>
<event>
 5    1  0.1165913E-006  0.2000128E+02  0.7818608E-02  0.1745303E+00
         -4   -1    0    0    0  501 -0.00000000000E+00  0.00000000000E+00  0.26785034369E+01  0.30316300337E+01  0.14200000000E+01 0. -1.
          4   -1    0    0  501    0  0.00000000000E+00 -0.00000000000E+00 -0.34661384530E+02  0.34690459460E+02  0.14200000000E+01 0.  1.
       1023    2    1    2    0    0  0.00000000000E+00  0.00000000000E+00 -0.31982881093E+02  0.37722089494E+02  0.20001283777E+02 0.  0.
        -11    1    3    3    0    0 -0.74953283623E+01  0.66204035925E+01 -0.16097239654E+02  0.18950747102E+02  0.51100000000E-03 0. -1.
         11    1    3    3    0    0  0.74953283623E+01 -0.66204035925E+01 -0.15885641439E+02  0.18771342392E+02  0.51100000000E-03 0.  1.
<mgrwt>
<rscale>  0 0.20001284E+02</rscale>
<asrwt>0</asrwt>
<pdfrwt beam="2">  1        4 0.53619205E-02 0.20001284E+02</pdfrwt>
<pdfrwt beam="1">  1       -4 0.44147759E-03 0.20001284E+02</pdfrwt>
<totfact> 0.12068413E+06</totfact>
</mgrwt>
</event>
<event>
 5    1  0.1154861E-006  0.2000059E+02  0.7818608E-02  0.1745316E+00
          4   -1    0    0  501    0  0.00000000000E+00  0.00000000000E+00  0.37968479794E+01  0.40536964093E+01  0.14200000000E+01 0.  1.
         -4   -1    0    0    0  501 -0.00000000000E+00 -0.00000000000E+00 -0.25199958727E+02  0.25239935020E+02  0.14200000000E+01 0. -1.
       1023    2    1    2    0    0  0.00000000000E+00  0.00000000000E+00 -0.21403110747E+02  0.29293631430E+02  0.20000592308E+02 0.  0.
        -11    1    3    3    0    0 -0.84573220882E+01  0.53363908202E+01 -0.10627464102E+02  0.14592681638E+02  0.51100000000E-03 0. -1.
         11    1    3    3    0    0  0.84573220882E+01 -0.53363908202E+01 -0.10775646645E+02  0.14700949791E+02  0.51100000000E-03 0.  1.
<mgrwt>
<rscale>  0 0.20000592E+02</rscale>
<asrwt>0</asrwt>
<pdfrwt beam="1">  1        4 0.60696314E-03 0.20000592E+02</pdfrwt>
<pdfrwt beam="2">  1       -4 0.38997493E-02 0.20000592E+02</pdfrwt>
<totfact> 0.12492048E+06</totfact>
</mgrwt>
</event>
<event>
 5    1  0.1154861E-006  0.2000044E+02  0.7818608E-02  0.1745319E+00
          4   -1    0    0  501    0  0.00000000000E+00  0.00000000000E+00  0.46522675677E+01  0.48641539369E+01  0.14200000000E+01 0. -1.
         -4   -1    0    0    0  501 -0.00000000000E+00 -0.00000000000E+00 -0.20780582133E+02  0.20829042076E+02  0.14200000000E+01 0.  1.
       1023    2    1    2    0    0  0.00000000000E+00  0.00000000000E+00 -0.16128314565E+02  0.25693196013E+02  0.20000444761E+02 0.  0.
        -11    1    3    3    0    0  0.99995737672E+01  0.96607188421E-01 -0.81416506732E+01  0.12895242705E+02  0.51100000000E-03 0. -1.
         11    1    3    3    0    0 -0.99995737672E+01 -0.96607188421E-01 -0.79866638921E+01  0.12797953308E+02  0.51100000000E-03 0.  1.
<mgrwt>
<rscale>  0 0.20000445E+02</rscale>
<asrwt>0</asrwt>
<pdfrwt beam="1">  1        4 0.73576012E-03 0.20000445E+02</pdfrwt>
<pdfrwt beam="2">  1       -4 0.32170392E-02 0.20000445E+02</pdfrwt>
<totfact> 0.12686518E+06</totfact>
</mgrwt>
</event>
<event>
 5    1  0.1154861E-006  0.2000201E+02  0.7818608E-02  0.1745288E+00
          4   -1    0    0  501    0  0.00000000000E+00  0.00000000000E+00  0.76939027913E+01  0.78238443340E+01  0.14200000000E+01 0. -1.
         -4   -1    0    0    0  501 -0.00000000000E+00 -0.00000000000E+00 -0.12721285216E+02  0.12800292870E+02  0.14200000000E+01 0.  1.
       1023    2    1    2    0    0  0.00000000000E+00  0.00000000000E+00 -0.50273824250E+01  0.20624137204E+02  0.20002011433E+02 0.  0.
        -11    1    3    3    0    0  0.83050091716E+01  0.55716073698E+01 -0.24474348731E+01  0.10295917819E+02  0.51100000000E-03 0. -1.
         11    1    3    3    0    0 -0.83050091716E+01 -0.55716073698E+01 -0.25799475519E+01  0.10328219385E+02  0.51100000000E-03 0.  1.
<mgrwt>
<rscale>  0 0.20002011E+02</rscale>
<asrwt>0</asrwt>
<pdfrwt beam="1">  1        4 0.11997504E-02 0.20002011E+02</pdfrwt>
<pdfrwt beam="2">  1       -4 0.19731938E-02 0.20002011E+02</pdfrwt>
<totfact> 0.12974317E+06</totfact>
</mgrwt>
</event>
<event>
 5    1  0.1154861E-006  0.2000027E+02  0.7818608E-02  0.1745323E+00
         -4   -1    0    0    0  501 -0.00000000000E+00  0.00000000000E+00  0.30115598302E+02  0.30149057383E+02  0.14200000000E+01 0. -1.
          4   -1    0    0  501    0  0.00000000000E+00 -0.00000000000E+00 -0.31317979448E+01  0.34386855580E+01  0.14200000000E+01 0.  1.
       1023    2    1    2    0    0  0.00000000000E+00  0.00000000000E+00  0.26983800357E+02  0.33587742941E+02  0.20000274852E+02 0.  0.
        -11    1    3    3    0    0  0.99034139452E+01  0.13874774931E+01  0.13503378364E+02  0.16803092842E+02  0.51100000000E-03 0. -1.
         11    1    3    3    0    0 -0.99034139452E+01 -0.13874774931E+01  0.13480421993E+02  0.16784650099E+02  0.51100000000E-03 0.  1.
<mgrwt>
<rscale>  0 0.20000275E+02</rscale>
<asrwt>0</asrwt>
<pdfrwt beam="2">  1        4 0.50799558E-03 0.20000275E+02</pdfrwt>
<pdfrwt beam="1">  1       -4 0.46593495E-02 0.20000275E+02</pdfrwt>
<totfact> 0.12271808E+06</totfact>
</mgrwt>
</event>
<event>
 5    1  0.1154861E-006  0.2000354E+02  0.7818608E-02  0.1745258E+00
          4   -1    0    0  501    0  0.00000000000E+00  0.00000000000E+00  0.13110207163E+02  0.13186884843E+02  0.14200000000E+01 0. -1.
         -4   -1    0    0    0  501 -0.00000000000E+00 -0.00000000000E+00 -0.74642869597E+01  0.75981563433E+01  0.14200000000E+01 0.  1.
       1023    2    1    2    0    0  0.00000000000E+00  0.00000000000E+00  0.56459202037E+01  0.20785041186E+02  0.20003537742E+02 0.  0.
        -11    1    3    3    0    0 -0.69831413217E+01 -0.71602024134E+01  0.28761352568E+01  0.10406964764E+02  0.51100000000E-03 0.  1.
         11    1    3    3    0    0  0.69831413217E+01  0.71602024134E+01  0.27697849469E+01  0.10378076423E+02  0.51100000000E-03 0. -1.
<mgrwt>
<rscale>  0 0.20003538E+02</rscale>
<asrwt>0</asrwt>
<pdfrwt beam="1">  1        4 0.20331509E-02 0.20003538E+02</pdfrwt>
<pdfrwt beam="2">  1       -4 0.11645478E-02 0.20003538E+02</pdfrwt>
<totfact> 0.12962784E+06</totfact>
</mgrwt>
</event>
<event>
 5    1  0.1215041E-006  0.2000122E+02  0.7818608E-02  0.1745304E+00
         -4   -1    0    0    0  501 -0.00000000000E+00  0.00000000000E+00  0.14297151543E+02  0.14367496032E+02  0.14200000000E+01 0. -1.
          4   -1    0    0  501    0  0.00000000000E+00 -0.00000000000E+00 -0.68345844224E+01  0.69805403965E+01  0.14200000000E+01 0.  1.
       1023    2    1    2    0    0  0.00000000000E+00  0.00000000000E+00  0.74625671205E+01  0.21348036429E+02  0.20001218746E+02 0.  0.
        -11    1    3    3    0    0 -0.32912322898E-02  0.10000384506E+02  0.36597921650E+01  0.10649027188E+02  0.51100000000E-03 0. -1.
         11    1    3    3    0    0  0.32912322898E-02 -0.10000384506E+02  0.38027749555E+01  0.10699009240E+02  0.51100000000E-03 0.  1.
<mgrwt>
<rscale>  0 0.20001219E+02</rscale>
<asrwt>0</asrwt>
<pdfrwt beam="2">  1        4 0.10681130E-02 0.20001219E+02</pdfrwt>
<pdfrwt beam="1">  1       -4 0.22162003E-02 0.20001219E+02</pdfrwt>
<totfact> 0.12932662E+06</totfact>
</mgrwt>
</event>
<event>
 5    1  0.1154861E-006  0.2000074E+02  0.7818608E-02  0.1745313E+00
          4   -1    0    0  501    0  0.00000000000E+00  0.00000000000E+00  0.42940329232E+00  0.14835050345E+01  0.14200000000E+01 0.  1.
         -4   -1    0    0    0  501 -0.00000000000E+00 -0.00000000000E+00 -0.10349889288E+03  0.10350863359E+03  0.14200000000E+01 0. -1.
       1023    2    1    2    0    0  0.00000000000E+00  0.00000000000E+00 -0.10306948959E+03  0.10499213862E+03  0.20000737206E+02 0.  0.
        -11    1    3    3    0    0  0.92159462245E+01  0.38822147206E+01 -0.51293272483E+02  0.52259018918E+02  0.51100000000E-03 0.  1.
         11    1    3    3    0    0 -0.92159462245E+01 -0.38822147206E+01 -0.51776217102E+02  0.52733119703E+02  0.51100000000E-03 0. -1.
<mgrwt>
<rscale>  0 0.20000737E+02</rscale>
<asrwt>0</asrwt>
<pdfrwt beam="1">  1        4 0.14789616E-03 0.20000737E+02</pdfrwt>
<pdfrwt beam="2">  1       -4 0.16004732E-01 0.20000737E+02</pdfrwt>
<totfact> 0.96606489E+05</totfact>
</mgrwt>
</event>
<event>
 5    1  0.1154861E-006  0.2000047E+02  0.7818608E-02  0.1745319E+00
          4   -1    0    0  501    0  0.00000000000E+00  0.00000000000E+00  0.82842167445E+02  0.82854336682E+02  0.14200000000E+01 0.  1.
         -4   -1    0    0    0  501 -0.00000000000E+00 -0.00000000000E+00 -0.77299989794E+00  0.16167649310E+01  0.14200000000E+01 0. -1.
       1023    2    1    2    0    0  0.00000000000E+00  0.00000000000E+00  0.82069167547E+02  0.84471101613E+02  0.20000468640E+02 0.  0.
        -11    1    3    3    0    0  0.58462796845E+01  0.81131355419E+01  0.40813841016E+02  0.42021084865E+02  0.51100000000E-03 0.  1.
         11    1    3    3    0    0 -0.58462796845E+01 -0.81131355419E+01  0.41255326531E+02  0.42450016748E+02  0.51100000000E-03 0. -1.
<mgrwt>
<rscale>  0 0.20000469E+02</rscale>
<asrwt>0</asrwt>
<pdfrwt beam="1">  1        4 0.12810791E-01 0.20000469E+02</pdfrwt>
<pdfrwt beam="2">  1       -4 0.18476415E-03 0.20000469E+02</pdfrwt>
<totfact> 0.10266917E+06</totfact>
</mgrwt>
</event>
<event>
 5    1  0.1154861E-006  0.2000042E+02  0.7818608E-02  0.1745320E+00
          4   -1    0    0  501    0  0.00000000000E+00  0.00000000000E+00  0.58212866163E+02  0.58230182783E+02  0.14200000000E+01 0. -1.
         -4   -1    0    0    0  501 -0.00000000000E+00 -0.00000000000E+00 -0.14038095657E+01  0.19967677123E+01  0.14200000000E+01 0.  1.
       1023    2    1    2    0    0  0.00000000000E+00  0.00000000000E+00  0.56809056597E+02  0.60226950495E+02  0.20000416357E+02 0.  0.
        -11    1    3    3    0    0  0.85943254862E+01  0.51128396311E+01  0.28330540274E+02  0.30043686061E+02  0.51100000000E-03 0. -1.
         11    1    3    3    0    0 -0.85943254862E+01 -0.51128396311E+01  0.28478516323E+02  0.30183264434E+02  0.51100000000E-03 0.  1.
<mgrwt>
<rscale>  0 0.20000416E+02</rscale>
<asrwt>0</asrwt>
<pdfrwt beam="1">  1        4 0.90027698E-02 0.20000416E+02</pdfrwt>
<pdfrwt beam="2">  1       -4 0.26291491E-03 0.20000416E+02</pdfrwt>
<totfact> 0.11109684E+06</totfact>
</mgrwt>
</event>
<event>
 5    1  0.1169098E-006  0.2000082E+02  0.7818608E-02  0.1745312E+00
          4   -1    0    0  501    0  0.00000000000E+00  0.00000000000E+00  0.71858118339E+01  0.73247724682E+01  0.14200000000E+01 0.  1.
         -4   -1    0    0    0  501 -0.00000000000E+00 -0.00000000000E+00 -0.13607907933E+02  0.13681796604E+02  0.14200000000E+01 0. -1.
       1023    2    1    2    0    0  0.00000000000E+00  0.00000000000E+00 -0.64220960992E+01  0.21006569072E+02  0.20000815630E+02 0.  0.
        -11    1    3    3    0    0  0.45326540950E+01 -0.89139715832E+01 -0.32800293374E+01  0.10524373390E+02  0.51100000000E-03 0. -1.
         11    1    3    3    0    0 -0.45326540950E+01  0.89139715832E+01 -0.31420667618E+01  0.10482195683E+02  0.51100000000E-03 0.  1.
<mgrwt>
<rscale>  0 0.20000816E+02</rscale>
<asrwt>0</asrwt>
<pdfrwt beam="1">  1        4 0.11218825E-02 0.20000816E+02</pdfrwt>
<pdfrwt beam="2">  1       -4 0.21098973E-02 0.20000816E+02</pdfrwt>
<totfact> 0.12953284E+06</totfact>
</mgrwt>
</event>
<event>
 5    1  0.1156050E-006  0.2000173E+02  0.7818608E-02  0.1745294E+00
         -4   -1    0    0    0  501 -0.00000000000E+00  0.00000000000E+00  0.42985229596E+01  0.45269967566E+01  0.14200000000E+01 0.  1.
          4   -1    0    0  501    0  0.00000000000E+00 -0.00000000000E+00 -0.22413943932E+02  0.22458879816E+02  0.14200000000E+01 0. -1.
       1023    2    1    2    0    0  0.00000000000E+00  0.00000000000E+00 -0.18115420972E+02  0.26985876572E+02  0.20001726360E+02 0.  0.
        -11    1    3    3    0    0 -0.93266101736E+01 -0.36089316381E+01 -0.91723443981E+01  0.13569891190E+02  0.51100000000E-03 0. -1.
         11    1    3    3    0    0  0.93266101736E+01  0.36089316381E+01 -0.89430765740E+01  0.13415985382E+02  0.51100000000E-03 0.  1.
<mgrwt>
<rscale>  0 0.20001726E+02</rscale>
<asrwt>0</asrwt>
<pdfrwt beam="2">  1        4 0.34693305E-02 0.20001726E+02</pdfrwt>
<pdfrwt beam="1">  1       -4 0.68234275E-03 0.20001726E+02</pdfrwt>
<totfact> 0.12614047E+06</totfact>
</mgrwt>
</event>
<event>
 5    1  0.1154861E-006  0.2001094E+02  0.7818608E-02  0.1745111E+00
          4   -1    0    0  501    0  0.00000000000E+00  0.00000000000E+00  0.74942865427E+01  0.76276294341E+01  0.14200000000E+01 0.  1.
         -4   -1    0    0    0  501 -0.00000000000E+00 -0.00000000000E+00 -0.13068160762E+02  0.13145083708E+02  0.14200000000E+01 0. -1.
       1023    2    1    2    0    0  0.00000000000E+00  0.00000000000E+00 -0.55738742188E+01  0.20772713142E+02  0.20010935447E+02 0.  0.
        -11    1    3    3    0    0  0.33342999780E+00 -0.99987026599E+01 -0.29482679266E+01  0.10429645942E+02  0.51100000000E-03 0. -1.
         11    1    3    3    0    0 -0.33342999780E+00  0.99987026599E+01 -0.26256062922E+01  0.10343067200E+02  0.51100000000E-03 0.  1.
<mgrwt>
<rscale>  0 0.20010935E+02</rscale>
<asrwt>0</asrwt>
<pdfrwt beam="1">  1        4 0.11691415E-02 0.20010935E+02</pdfrwt>
<pdfrwt beam="2">  1       -4 0.20266606E-02 0.20010935E+02</pdfrwt>
<totfact> 0.12953737E+06</totfact>
</mgrwt>
</event>
<event>
 5    1  0.1186359E-006  0.2000093E+02  0.7818608E-02  0.1745310E+00
         -4   -1    0    0    0  501 -0.00000000000E+00  0.00000000000E+00  0.14891994900E+02  0.14959542510E+02  0.14200000000E+01 0. -1.
          4   -1    0    0  501    0  0.00000000000E+00 -0.00000000000E+00 -0.65567252405E+01  0.67087290808E+01  0.14200000000E+01 0.  1.
       1023    2    1    2    0    0  0.00000000000E+00  0.00000000000E+00  0.83352696600E+01  0.21668271591E+02  0.20000931814E+02 0.  0.
        -11    1    3    3    0    0  0.71695979096E+00  0.99743787608E+01  0.40766381777E+01  0.10799131544E+02  0.51100000000E-03 0. -1.
         11    1    3    3    0    0 -0.71695979096E+00 -0.99743787608E+01  0.42586314823E+01  0.10869140047E+02  0.51100000000E-03 0.  1.
<mgrwt>
<rscale>  0 0.20000932E+02</rscale>
<asrwt>0</asrwt>
<pdfrwt beam="2">  1        4 0.10256155E-02 0.20000932E+02</pdfrwt>
<pdfrwt beam="1">  1       -4 0.23079647E-02 0.20000932E+02</pdfrwt>
<totfact> 0.12914304E+06</totfact>
</mgrwt>
</event>
<event>
 5    1  0.1154861E-006  0.2000046E+02  0.7818608E-02  0.1745319E+00
          4   -1    0    0  501    0  0.00000000000E+00  0.00000000000E+00  0.26044648374E+01  0.29664182256E+01  0.14200000000E+01 0. -1.
         -4   -1    0    0    0  501 -0.00000000000E+00 -0.00000000000E+00 -0.35525551298E+02  0.35553919545E+02  0.14200000000E+01 0.  1.
       1023    2    1    2    0    0  0.00000000000E+00  0.00000000000E+00 -0.32921086461E+02  0.38520337771E+02  0.20000462201E+02 0.  0.
        -11    1    3    3    0    0  0.99976200371E+01 -0.22236618721E+00 -0.16359202114E+02  0.19173558542E+02  0.51100000000E-03 0. -1.
         11    1    3    3    0    0 -0.99976200371E+01  0.22236618721E+00 -0.16561884347E+02  0.19346779228E+02  0.51100000000E-03 0.  1.
<mgrwt>
<rscale>  0 0.20000462E+02</rscale>
<asrwt>0</asrwt>
<pdfrwt beam="1">  1        4 0.43071166E-03 0.20000462E+02</pdfrwt>
<pdfrwt beam="2">  1       -4 0.54954939E-02 0.20000462E+02</pdfrwt>
<totfact> 0.12031481E+06</totfact>
</mgrwt>
</event>
<event>
 5    1  0.1154861E-006  0.2000012E+02  0.7818608E-02  0.1745326E+00
         -4   -1    0    0    0  501 -0.00000000000E+00  0.00000000000E+00  0.29050525109E+02  0.29085209456E+02  0.14200000000E+01 0.  1.
          4   -1    0    0  501    0  0.00000000000E+00 -0.00000000000E+00 -0.32574665575E+01  0.35535177463E+01  0.14200000000E+01 0. -1.
       1023    2    1    2    0    0  0.00000000000E+00  0.00000000000E+00  0.25793058551E+02  0.32638727202E+02  0.20000116098E+02 0.  0.
        -11    1    3    3    0    0  0.69050897093E+01  0.72332614135E+01  0.12943435699E+02  0.16356431840E+02  0.51100000000E-03 0.  1.
         11    1    3    3    0    0 -0.69050897093E+01 -0.72332614135E+01  0.12849622852E+02  0.16282295362E+02  0.51100000000E-03 0. -1.
<mgrwt>
<rscale>  0 0.20000116E+02</rscale>
<asrwt>0</asrwt>
<pdfrwt beam="2">  1        4 0.52658991E-03 0.20000116E+02</pdfrwt>
<pdfrwt beam="1">  1       -4 0.44947526E-02 0.20000116E+02</pdfrwt>
<totfact> 0.12319824E+06</totfact>
</mgrwt>
</event>
<event>
 5    1  0.1170025E-006  0.2000097E+02  0.7818608E-02  0.1745309E+00
         -4   -1    0    0    0  501 -0.00000000000E+00  0.00000000000E+00  0.26036252070E+02  0.26074946249E+02  0.14200000000E+01 0. -1.
          4   -1    0    0  501    0  0.00000000000E+00 -0.00000000000E+00 -0.36668512034E+01  0.39322001154E+01  0.14200000000E+01 0. -1.
       1023    2    1    2    0    0  0.00000000000E+00  0.00000000000E+00  0.22369400867E+02  0.30007146364E+02  0.20000968421E+02 0.  0.
        -11    1    3    3    0    0 -0.95109910491E+01  0.30904043499E+01  0.11167307532E+02  0.14990607311E+02  0.51100000000E-03 0.  1.
         11    1    3    3    0    0  0.95109910491E+01 -0.30904043499E+01  0.11202093335E+02  0.15016539053E+02  0.51100000000E-03 0. -1.
<mgrwt>
<rscale>  0 0.20000968E+02</rscale>
<asrwt>0</asrwt>
<pdfrwt beam="2">  1        4 0.58751889E-03 0.20000968E+02</pdfrwt>
<pdfrwt beam="1">  1       -4 0.40289651E-02 0.20000968E+02</pdfrwt>
<totfact> 0.12454142E+06</totfact>
</mgrwt>
</event>
<event>
 5    1  0.1154861E-006  0.2000130E+02  0.7818608E-02  0.1745302E+00
          4   -1    0    0  501    0  0.00000000000E+00  0.00000000000E+00  0.95198003011E+02  0.95208592980E+02  0.14200000000E+01 0.  1.
         -4   -1    0    0    0  501 -0.00000000000E+00 -0.00000000000E+00 -0.55514657450E+00  0.15246598700E+01  0.14200000000E+01 0. -1.
       1023    2    1    2    0    0  0.00000000000E+00  0.00000000000E+00  0.94642856437E+02  0.96733252850E+02  0.20001298271E+02 0.  0.
        -11    1    3    3    0    0 -0.63270324224E+01  0.77445206569E+01  0.47013895995E+02  0.48065739944E+02  0.51100000000E-03 0. -1.
         11    1    3    3    0    0  0.63270324224E+01 -0.77445206569E+01  0.47628960442E+02  0.48667512907E+02  0.51100000000E-03 0.  1.
<mgrwt>
<rscale>  0 0.20001298E+02</rscale>
<asrwt>0</asrwt>
<pdfrwt beam="1">  1        4 0.14721242E-01 0.20001298E+02</pdfrwt>
<pdfrwt beam="2">  1       -4 0.16079970E-03 0.20001298E+02</pdfrwt>
<totfact> 0.98939930E+05</totfact>
</mgrwt>
</event>
<event>
 5    1  0.1154861E-006  0.2000084E+02  0.7818608E-02  0.1745311E+00
          4   -1    0    0  501    0  0.00000000000E+00  0.00000000000E+00  0.88271038371E+02  0.88282459271E+02  0.14200000000E+01 0. -1.
         -4   -1    0    0    0  501 -0.00000000000E+00 -0.00000000000E+00 -0.67193779113E+00  0.15709552493E+01  0.14200000000E+01 0.  1.
       1023    2    1    2    0    0  0.00000000000E+00  0.00000000000E+00  0.87599100579E+02  0.89853414521E+02  0.20000841950E+02 0.  0.
        -11    1    3    3    0    0  0.38466292347E+01 -0.92310269796E+01  0.43808362707E+02  0.44935298585E+02  0.51100000000E-03 0. -1.
         11    1    3    3    0    0 -0.38466292347E+01  0.92310269796E+01  0.43790737873E+02  0.44918115936E+02  0.51100000000E-03 0.  1.
<mgrwt>
<rscale>  0 0.20000842E+02</rscale>
<asrwt>0</asrwt>
<pdfrwt beam="1">  1        4 0.13650194E-01 0.20000842E+02</pdfrwt>
<pdfrwt beam="2">  1       -4 0.17340875E-03 0.20000842E+02</pdfrwt>
<totfact> 0.10099323E+06</totfact>
</mgrwt>
</event>
<event>
 5    1  0.1154861E-006  0.2000274E+02  0.7818608E-02  0.1745274E+00
         -4   -1    0    0    0  501 -0.00000000000E+00  0.00000000000E+00  0.50206567945E+02  0.50226644969E+02  0.14200000000E+01 0. -1.
          4   -1    0    0  501    0  0.00000000000E+00 -0.00000000000E+00 -0.17161339362E+01  0.22274460009E+01  0.14200000000E+01 0.  1.
       1023    2    1    2    0    0  0.00000000000E+00  0.00000000000E+00  0.48490434009E+02  0.52454090970E+02  0.20002736540E+02 0.  0.
        -11    1    3    3    0    0  0.85857537852E+01  0.51294814445E+01  0.24179970540E+02  0.26166729324E+02  0.51100000000E-03 0. -1.
         11    1    3    3    0    0 -0.85857537852E+01 -0.51294814445E+01  0.24310463469E+02  0.26287361646E+02  0.51100000000E-03 0.  1.
<mgrwt>
<rscale>  0 0.20002737E+02</rscale>
<asrwt>0</asrwt>
<pdfrwt beam="2">  1        4 0.30489667E-03 0.20002737E+02</pdfrwt>
<pdfrwt beam="1">  1       -4 0.77649640E-02 0.20002737E+02</pdfrwt>
<totfact> 0.11415079E+06</totfact>
</mgrwt>
</event>
<event>
 5    1  0.1154861E-006  0.2000457E+02  0.7818608E-02  0.1745237E+00
         -4   -1    0    0    0  501 -0.00000000000E+00  0.00000000000E+00  0.36225121141E+02  0.36252941973E+02  0.14200000000E+01 0. -1.
          4   -1    0    0  501    0  0.00000000000E+00 -0.00000000000E+00 -0.25483650717E+01  0.29172871883E+01  0.14200000000E+01 0.  1.
       1023    2    1    2    0    0  0.00000000000E+00  0.00000000000E+00  0.33676756069E+02  0.39170229161E+02  0.20004573307E+02 0.  0.
        -11    1    3    3    0    0 -0.79061502272E+01  0.61237153615E+01  0.16453496262E+02  0.19254210988E+02  0.51100000000E-03 0.  1.
         11    1    3    3    0    0  0.79061502272E+01 -0.61237153615E+01  0.17223259807E+02  0.19916018174E+02  0.51100000000E-03 0. -1.
<mgrwt>
<rscale>  0 0.20004573E+02</rscale>
<asrwt>0</asrwt>
<pdfrwt beam="2">  1        4 0.42257489E-03 0.20004573E+02</pdfrwt>
<pdfrwt beam="1">  1       -4 0.56036138E-02 0.20004573E+02</pdfrwt>
<totfact> 0.11995852E+06</totfact>
</mgrwt>
</event>
<event>
 5    1  0.1154861E-006  0.2000443E+02  0.7818608E-02  0.1745240E+00
         -4   -1    0    0    0  501 -0.00000000000E+00  0.00000000000E+00  0.68906944588E+02  0.68921574362E+02  0.14200000000E+01 0. -1.
          4   -1    0    0  501    0  0.00000000000E+00 -0.00000000000E+00 -0.10862668575E+01  0.17878410684E+01  0.14200000000E+01 0.  1.
       1023    2    1    2    0    0  0.00000000000E+00  0.00000000000E+00  0.67820677731E+02  0.70709415430E+02  0.20004427075E+02 0.  0.
        -11    1    3    3    0    0 -0.80438454901E+01  0.59441428381E+01  0.34226313950E+02  0.35657774064E+02  0.51100000000E-03 0. -1.
         11    1    3    3    0    0  0.80438454901E+01 -0.59441428381E+01  0.33594363781E+02  0.35051641366E+02  0.51100000000E-03 0.  1.
<mgrwt>
<rscale>  0 0.20004427E+02</rscale>
<asrwt>0</asrwt>
<pdfrwt beam="2">  1        4 0.22221060E-03 0.20004427E+02</pdfrwt>
<pdfrwt beam="1">  1       -4 0.10656161E-01 0.20004427E+02</pdfrwt>
<totfact> 0.10721065E+06</totfact>
</mgrwt>
</event>
<event>
 5    1  0.1154861E-006  0.2000479E+02  0.7818608E-02  0.1745233E+00
         -4   -1    0    0    0  501 -0.00000000000E+00  0.00000000000E+00  0.75755827805E+02  0.75769135183E+02  0.14200000000E+01 0. -1.
          4   -1    0    0  501    0  0.00000000000E+00 -0.00000000000E+00 -0.92157458082E+00  0.16928377678E+01  0.14200000000E+01 0.  1.
       1023    2    1    2    0    0  0.00000000000E+00  0.00000000000E+00  0.74834253224E+02  0.77461972951E+02  0.20004794372E+02 0.  0.
        -11    1    3    3    0    0 -0.25278159579E+01 -0.96757884611E+01  0.36670155534E+02  0.38009354678E+02  0.51100000000E-03 0. -1.
         11    1    3    3    0    0  0.25278159579E+01  0.96757884611E+01  0.38164097690E+02  0.39452618273E+02  0.51100000000E-03 0.  1.
<mgrwt>
<rscale>  0 0.20004794E+02</rscale>
<asrwt>0</asrwt>
<pdfrwt beam="2">  1        4 0.20213223E-03 0.20004794E+02</pdfrwt>
<pdfrwt beam="1">  1       -4 0.11715097E-01 0.20004794E+02</pdfrwt>
<totfact> 0.10489874E+06</totfact>
</mgrwt>
</event>
<event>
 5    1  0.1154861E-006  0.2000095E+02  0.7818608E-02  0.1745309E+00
         -4   -1    0    0    0  501 -0.00000000000E+00  0.00000000000E+00  0.23120155543E+01  0.27132666518E+01  0.14200000000E+01 0.  1.
          4   -1    0    0  501    0  0.00000000000E+00 -0.00000000000E+00 -0.39387490751E+02  0.39413079399E+02  0.14200000000E+01 0. -1.
       1023    2    1    2    0    0  0.00000000000E+00  0.00000000000E+00 -0.37075475197E+02  0.42126346051E+02  0.20000954239E+02 0.  0.
        -11    1    3    3    0    0 -0.58528146872E+01 -0.81088573838E+01 -0.18586432950E+02  0.21106029895E+02  0.51100000000E-03 0. -1.
         11    1    3    3    0    0  0.58528146872E+01  0.81088573838E+01 -0.18489042247E+02  0.21020316156E+02  0.51100000000E-03 0.  1.
<mgrwt>
<rscale>  0 0.20000954E+02</rscale>
<asrwt>0</asrwt>
<pdfrwt beam="2">  1        4 0.60924473E-02 0.20000954E+02</pdfrwt>
<pdfrwt beam="1">  1       -4 0.38852856E-03 0.20000954E+02</pdfrwt>
<totfact> 0.11863628E+06</totfact>
</mgrwt>
</event>
<event>
 5    1  0.1154861E-006  0.2000026E+02  0.7818608E-02  0.1745323E+00
          4   -1    0    0  501    0  0.00000000000E+00  0.00000000000E+00  0.33148881002E+01  0.36062283784E+01  0.14200000000E+01 0. -1.
         -4   -1    0    0    0  501 -0.00000000000E+00 -0.00000000000E+00 -0.28588131792E+02  0.28623376449E+02  0.14200000000E+01 0.  1.
       1023    2    1    2    0    0  0.00000000000E+00  0.00000000000E+00 -0.25273243692E+02  0.32229604827E+02  0.20000264514E+02 0.  0.
        -11    1    3    3    0    0  0.55743994540E+01 -0.83021947521E+01 -0.12713532920E+02  0.16175113185E+02  0.51100000000E-03 0.  1.
         11    1    3    3    0    0 -0.55743994540E+01  0.83021947521E+01 -0.12559710772E+02  0.16054491643E+02  0.51100000000E-03 0. -1.
<mgrwt>
<rscale>  0 0.20000265E+02</rscale>
<asrwt>0</asrwt>
<pdfrwt beam="1">  1        4 0.53510472E-03 0.20000265E+02</pdfrwt>
<pdfrwt beam="2">  1       -4 0.44232959E-02 0.20000265E+02</pdfrwt>
<totfact> 0.12340422E+06</totfact>
</mgrwt>
</event>
<event>
 4    1  0.1154861E-006  0.2003843E+02  0.7818608E-02  0.1744565E+00
         -4   -1    0    0    0  501 -0.00000000000E+00  0.00000000000E+00  0.18671320420E+01  0.23457583129E+01  0.14200000000E+01 0. -1.
          4   -1    0    0  501    0  0.00000000000E+00 -0.00000000000E+00 -0.47165455453E+02  0.47186826425E+02  0.14200000000E+01 0.  1.
        -11    1    1    2    0    0  0.85909254260E+01  0.51265792445E+01 -0.21297748895E+02  0.23530404219E+02  0.51100000000E-03 0.  1.
         11    1    1    2    0    0 -0.85909254260E+01 -0.51265792445E+01 -0.24000574515E+02  0.26002180519E+02  0.51100000000E-03 0. -1.
<mgrwt>
<rscale>  0 0.20038434E+02</rscale>
<asrwt>0</asrwt>
<pdfrwt beam="2">  1        4 0.72946845E-02 0.20038434E+02</pdfrwt>
<pdfrwt beam="1">  1       -4 0.32571244E-03 0.20038434E+02</pdfrwt>
<totfact> 0.11495290E+06</totfact>
</mgrwt>
</event>
<event>
 5    1  0.1154861E-006  0.2000019E+02  0.7818608E-02  0.1745324E+00
          4   -1    0    0  501    0  0.00000000000E+00  0.00000000000E+00  0.32893467255E+02  0.32924103451E+02  0.14200000000E+01 0.  1.
         -4   -1    0    0    0  501 -0.00000000000E+00 -0.00000000000E+00 -0.28404603073E+01  0.31756282461E+01  0.14200000000E+01 0. -1.
       1023    2    1    2    0    0  0.00000000000E+00  0.00000000000E+00  0.30053006948E+02  0.36099731698E+02  0.20000185050E+02 0.  0.
        -11    1    3    3    0    0 -0.64699449983E+01 -0.76250336691E+01  0.15067801691E+02  0.18084246592E+02  0.51100000000E-03 0.  1.
         11    1    3    3    0    0  0.64699449983E+01  0.76250336691E+01  0.14985205257E+02  0.18015485106E+02  0.51100000000E-03 0. -1.
<mgrwt>
<rscale>  0 0.20000185E+02</rscale>
<asrwt>0</asrwt>
<pdfrwt beam="1">  1        4 0.50886721E-02 0.20000185E+02</pdfrwt>
<pdfrwt beam="2">  1       -4 0.46513268E-03 0.20000185E+02</pdfrwt>
<totfact> 0.12147929E+06</totfact>
</mgrwt>
</event>
<event>
 4    1  0.1154861E-006  0.2006071E+02  0.7818608E-02  0.1744123E+00
          4   -1    0    0  501    0  0.00000000000E+00  0.00000000000E+00  0.15383294058E+01  0.20935274922E+01  0.14200000000E+01 0. -1.
         -4   -1    0    0    0  501 -0.00000000000E+00 -0.00000000000E+00 -0.54837305706E+02  0.54855687919E+02  0.14200000000E+01 0.  1.
        -11    1    1    2    0    0  0.78256232443E+01  0.62404146499E+01 -0.28499993263E+02  0.30206502121E+02  0.51100000000E-03 0.  1.
         11    1    1    2    0    0 -0.78256232443E+01 -0.62404146499E+01 -0.24798983037E+02  0.26742713290E+02  0.51100000000E-03 0. -1.
<mgrwt>
<rscale>  0 0.20060714E+02</rscale>
<asrwt>0</asrwt>
<pdfrwt beam="1">  1        4 0.28078767E-03 0.20060714E+02</pdfrwt>
<pdfrwt beam="2">  1       -4 0.84806289E-02 0.20060714E+02</pdfrwt>
<totfact> 0.11169034E+06</totfact>
</mgrwt>
</event>
<event>
 5    1  0.1154861E-006  0.2000239E+02  0.7818608E-02  0.1745281E+00
          4   -1    0    0  501    0  0.00000000000E+00  0.00000000000E+00  0.19415485432E+01  0.24054128015E+01  0.14200000000E+01 0. -1.
         -4   -1    0    0    0  501 -0.00000000000E+00 -0.00000000000E+00 -0.45544021992E+02  0.45566153439E+02  0.14200000000E+01 0.  1.
       1023    2    1    2    0    0  0.00000000000E+00  0.00000000000E+00 -0.43602473449E+02  0.47971566240E+02  0.20002386775E+02 0.  0.
        -11    1    3    3    0    0  0.17287543990E+01 -0.98506038677E+01 -0.21872405021E+02  0.24050469642E+02  0.51100000000E-03 0.  1.
         11    1    3    3    0    0 -0.17287543990E+01  0.98506038677E+01 -0.21730068428E+02  0.23921096598E+02  0.51100000000E-03 0. -1.
<mgrwt>
<rscale>  0 0.20002387E+02</rscale>
<asrwt>0</asrwt>
<pdfrwt beam="1">  1        4 0.33608410E-03 0.20002387E+02</pdfrwt>
<pdfrwt beam="2">  1       -4 0.70441561E-02 0.20002387E+02</pdfrwt>
<totfact> 0.11603585E+06</totfact>
</mgrwt>
</event>
<event>
 5    1  0.1154861E-006  0.2000268E+02  0.7818608E-02  0.1745275E+00
          4   -1    0    0  501    0  0.00000000000E+00  0.00000000000E+00  0.22769605555E+02  0.22813840911E+02  0.14200000000E+01 0.  1.
         -4   -1    0    0    0  501 -0.00000000000E+00 -0.00000000000E+00 -0.42283506948E+01  0.44604203387E+01  0.14200000000E+01 0. -1.
       1023    2    1    2    0    0  0.00000000000E+00  0.00000000000E+00  0.18541254860E+02  0.27274261250E+02  0.20002679694E+02 0.  0.
        -11    1    3    3    0    0 -0.94516977768E+01 -0.32695463316E+01  0.93356550560E+01  0.13681336911E+02  0.51100000000E-03 0.  1.
         11    1    3    3    0    0  0.94516977768E+01  0.32695463316E+01  0.92055998039E+01  0.13592924339E+02  0.51100000000E-03 0. -1.
<mgrwt>
<rscale>  0 0.20002680E+02</rscale>
<asrwt>0</asrwt>
<pdfrwt beam="1">  1        4 0.35242704E-02 0.20002680E+02</pdfrwt>
<pdfrwt beam="2">  1       -4 0.67176973E-03 0.20002680E+02</pdfrwt>
<totfact> 0.12597196E+06</totfact>
</mgrwt>
</event>
<event>
 5    1  0.1154861E-006  0.2000032E+02  0.7818608E-02  0.1745322E+00
         -4   -1    0    0    0  501 -0.00000000000E+00  0.00000000000E+00  0.21909444833E+01  0.26108691520E+01  0.14200000000E+01 0. -1.
          4   -1    0    0  501    0  0.00000000000E+00 -0.00000000000E+00 -0.41219038242E+02  0.41243490560E+02  0.14200000000E+01 0.  1.
       1023    2    1    2    0    0  0.00000000000E+00  0.00000000000E+00 -0.39028093759E+02  0.43854359712E+02  0.20000319081E+02 0.  0.
        -11    1    3    3    0    0  0.63436015173E+01 -0.77305183394E+01 -0.19583266526E+02  0.21988781733E+02  0.51100000000E-03 0.  1.
         11    1    3    3    0    0 -0.63436015173E+01  0.77305183394E+01 -0.19444827233E+02  0.21865577980E+02  0.51100000000E-03 0. -1.
<mgrwt>
<rscale>  0 0.20000319E+02</rscale>
<asrwt>0</asrwt>
<pdfrwt beam="2">  1        4 0.63755728E-02 0.20000319E+02</pdfrwt>
<pdfrwt beam="1">  1       -4 0.37125126E-03 0.20000319E+02</pdfrwt>
<totfact> 0.11786387E+06</totfact>
</mgrwt>
</event>
<event>
 5    1  0.1154861E-006  0.2000104E+02  0.7818608E-02  0.1745307E+00
          4   -1    0    0  501    0  0.00000000000E+00  0.00000000000E+00  0.25800034094E+01  0.29449647863E+01  0.14200000000E+01 0. -1.
         -4   -1    0    0    0  501 -0.00000000000E+00 -0.00000000000E+00 -0.35823100919E+02  0.35851233723E+02  0.14200000000E+01 0.  1.
       1023    2    1    2    0    0  0.00000000000E+00  0.00000000000E+00 -0.33243097509E+02  0.38796198509E+02  0.20001037141E+02 0.  0.
        -11    1    3    3    0    0 -0.99860381358E+01  0.52936825936E+00 -0.16435670174E+02  0.19238826438E+02  0.51100000000E-03 0.  1.
         11    1    3    3    0    0  0.99860381358E+01 -0.52936825936E+00 -0.16807427336E+02  0.19557372071E+02  0.51100000000E-03 0. -1.
<mgrwt>
<rscale>  0 0.20001037E+02</rscale>
<asrwt>0</asrwt>
<pdfrwt beam="1">  1        4 0.42716164E-03 0.20001037E+02</pdfrwt>
<pdfrwt beam="2">  1       -4 0.55414840E-02 0.20001037E+02</pdfrwt>
<totfact> 0.12017750E+06</totfact>
</mgrwt>
</event>
<event>
 5    1  0.1154861E-006  0.2000327E+02  0.7818608E-02  0.1745263E+00
         -4   -1    0    0    0  501 -0.00000000000E+00  0.00000000000E+00  0.43247050225E+01  0.45518648411E+01  0.14200000000E+01 0.  1.
          4   -1    0    0  501    0  0.00000000000E+00 -0.00000000000E+00 -0.22288261719E+02  0.22333450483E+02  0.14200000000E+01 0. -1.
       1023    2    1    2    0    0  0.00000000000E+00  0.00000000000E+00 -0.17963556697E+02  0.26885315324E+02  0.20003270004E+02 0.  0.
        -11    1    3    3    0    0 -0.87292698784E+01 -0.48815965607E+01 -0.90498468616E+01  0.13488137976E+02  0.51100000000E-03 0.  1.
         11    1    3    3    0    0  0.87292698784E+01  0.48815965607E+01 -0.89137098350E+01  0.13397177347E+02  0.51100000000E-03 0. -1.
<mgrwt>
<rscale>  0 0.20003270E+02</rscale>
<asrwt>0</asrwt>
<pdfrwt beam="2">  1        4 0.34499132E-02 0.20003270E+02</pdfrwt>
<pdfrwt beam="1">  1       -4 0.68628914E-03 0.20003270E+02</pdfrwt>
<totfact> 0.12617530E+06</totfact>
</mgrwt>
</event>
<event>
 5    1  0.1154861E-006  0.2000144E+02  0.7818608E-02  0.1745299E+00
          4   -1    0    0  501    0  0.00000000000E+00  0.00000000000E+00  0.51217202319E+02  0.51236883330E+02  0.14200000000E+01 0. -1.
         -4   -1    0    0    0  501 -0.00000000000E+00 -0.00000000000E+00 -0.16718104894E+01  0.21934790431E+01  0.14200000000E+01 0.  1.
       1023    2    1    2    0    0  0.00000000000E+00  0.00000000000E+00  0.49545391829E+02  0.53430362373E+02  0.20001444242E+02 0.  0.
        -11    1    3    3    0    0 -0.60014946603E+01 -0.79995816063E+01  0.24621614816E+02  0.26575085333E+02  0.51100000000E-03 0.  1.
         11    1    3    3    0    0  0.60014946603E+01  0.79995816063E+01  0.24923777013E+02  0.26855277040E+02  0.51100000000E-03 0. -1.
<mgrwt>
<rscale>  0 0.20001444E+02</rscale>
<asrwt>0</asrwt>
<pdfrwt beam="1">  1        4 0.79212114E-02 0.20001444E+02</pdfrwt>
<pdfrwt beam="2">  1       -4 0.29884390E-03 0.20001444E+02</pdfrwt>
<totfact> 0.11376661E+06</totfact>
</mgrwt>
</event>
<event>
 5    1  0.1154861E-006  0.2000407E+02  0.7818608E-02  0.1745247E+00
         -4   -1    0    0    0  501 -0.00000000000E+00  0.00000000000E+00  0.32896615615E+02  0.32927248882E+02  0.14200000000E+01 0. -1.
          4   -1    0    0  501    0  0.00000000000E+00 -0.00000000000E+00 -0.28414029353E+01  0.31764714135E+01  0.14200000000E+01 0.  1.
       1023    2    1    2    0    0  0.00000000000E+00  0.00000000000E+00  0.30055212680E+02  0.36103720295E+02  0.20004069834E+02 0.  0.
        -11    1    3    3    0    0  0.44001505435E+01 -0.89811907777E+01  0.14788240605E+02  0.17852595695E+02  0.51100000000E-03 0.  1.
         11    1    3    3    0    0 -0.44001505435E+01  0.89811907777E+01  0.15266972075E+02  0.18251124601E+02  0.51100000000E-03 0. -1.
<mgrwt>
<rscale>  0 0.20004070E+02</rscale>
<asrwt>0</asrwt>
<pdfrwt beam="2">  1        4 0.46526981E-03 0.20004070E+02</pdfrwt>
<pdfrwt beam="1">  1       -4 0.50891487E-02 0.20004070E+02</pdfrwt>
<totfact> 0.12142953E+06</totfact>
</mgrwt>
</event>
<event>
 4    1  0.1154861E-006  0.2020810E+02  0.7818608E-02  0.1741221E+00
         -4   -1    0    0    0  501 -0.00000000000E+00  0.00000000000E+00  0.71769530398E+02  0.71783576768E+02  0.14200000000E+01 0.  1.
          4   -1    0    0  501    0  0.00000000000E+00 -0.00000000000E+00 -0.10503199150E+01  0.17662309939E+01  0.14200000000E+01 0. -1.
        -11    1    1    2    0    0  0.35736963184E+01 -0.94427897535E+01  0.33929977617E+02  0.35400296116E+02  0.51100000000E-03 0. -1.
         11    1    1    2    0    0 -0.35736963184E+01  0.94427897535E+01  0.36789232866E+02  0.38149511646E+02  0.51100000000E-03 0.  1.
<mgrwt>
<rscale>  0 0.20208105E+02</rscale>
<asrwt>0</asrwt>
<pdfrwt beam="2">  1        4 0.21773815E-03 0.20208105E+02</pdfrwt>
<pdfrwt beam="1">  1       -4 0.11097622E-01 0.20208105E+02</pdfrwt>
<totfact> 0.10408613E+06</totfact>
</mgrwt>
</event>
<event>
 5    1  0.1154861E-006  0.2000094E+02  0.7818608E-02  0.1745309E+00
         -4   -1    0    0    0  501 -0.00000000000E+00  0.00000000000E+00  0.49368891700E+02  0.49389309244E+02  0.14200000000E+01 0. -1.
          4   -1    0    0  501    0  0.00000000000E+00 -0.00000000000E+00 -0.17534303958E+01  0.22563063074E+01  0.14200000000E+01 0.  1.
       1023    2    1    2    0    0  0.00000000000E+00  0.00000000000E+00  0.47615461304E+02  0.51645615552E+02  0.20000936242E+02 0.  0.
        -11    1    3    3    0    0  0.68000321573E+01  0.73323971314E+01  0.23988063509E+02  0.25989068398E+02  0.51100000000E-03 0. -1.
         11    1    3    3    0    0 -0.68000321573E+01 -0.73323971314E+01  0.23627397795E+02  0.25656547154E+02  0.51100000000E-03 0.  1.
<mgrwt>
<rscale>  0 0.20000936E+02</rscale>
<asrwt>0</asrwt>
<pdfrwt beam="2">  1        4 0.31001189E-03 0.20000936E+02</pdfrwt>
<pdfrwt beam="1">  1       -4 0.76354669E-02 0.20000936E+02</pdfrwt>
<totfact> 0.11450479E+06</totfact>
</mgrwt>
</event>
<event>
 5    1  0.1154861E-006  0.2000035E+02  0.7818608E-02  0.1745321E+00
         -4   -1    0    0    0  501 -0.00000000000E+00  0.00000000000E+00  0.15533008007E+02  0.15597779898E+02  0.14200000000E+01 0. -1.
          4   -1    0    0  501    0  0.00000000000E+00 -0.00000000000E+00 -0.62805340225E+01  0.64390610812E+01  0.14200000000E+01 0.  1.
       1023    2    1    2    0    0  0.00000000000E+00  0.00000000000E+00  0.92524739850E+01  0.22036840980E+02  0.20000352135E+02 0.  0.
        -11    1    3    3    0    0  0.58407853185E+01 -0.81171135975E+01  0.46646403176E+01  0.11034544660E+02  0.51100000000E-03 0.  1.
         11    1    3    3    0    0 -0.58407853185E+01  0.81171135975E+01  0.45878336674E+01  0.11002296320E+02  0.51100000000E-03 0. -1.
<mgrwt>
<rscale>  0 0.20000352E+02</rscale>
<asrwt>0</asrwt>
<pdfrwt beam="2">  1        4 0.98341286E-03 0.20000352E+02</pdfrwt>
<pdfrwt beam="1">  1       -4 0.24068704E-02 0.20000352E+02</pdfrwt>
<totfact> 0.12893623E+06</totfact>
</mgrwt>
</event>
<event>
 5    1  0.1154861E-006  0.2000071E+02  0.7818608E-02  0.1745314E+00
         -4   -1    0    0    0  501 -0.00000000000E+00  0.00000000000E+00  0.46370168434E+02  0.46391905765E+02  0.14200000000E+01 0. -1.
          4   -1    0    0  501    0  0.00000000000E+00 -0.00000000000E+00 -0.18982357299E+01  0.23705904088E+01  0.14200000000E+01 0. -1.
       1023    2    1    2    0    0  0.00000000000E+00  0.00000000000E+00  0.44471932704E+02  0.48762496174E+02  0.20000705856E+02 0.  0.
        -11    1    3    3    0    0 -0.49654146434E+01  0.86805357797E+01  0.22226707874E+02  0.24372804254E+02  0.51100000000E-03 0.  1.
         11    1    3    3    0    0  0.49654146434E+01 -0.86805357797E+01  0.22245224829E+02  0.24389691921E+02  0.51100000000E-03 0. -1.
<mgrwt>
<rscale>  0 0.20000706E+02</rscale>
<asrwt>0</asrwt>
<pdfrwt beam="2">  1        4 0.33004335E-03 0.20000706E+02</pdfrwt>
<pdfrwt beam="1">  1       -4 0.71718790E-02 0.20000706E+02</pdfrwt>
<totfact> 0.11571753E+06</totfact>
</mgrwt>
</event>
<event>
 5    1  0.1154861E-006  0.2000033E+02  0.7818608E-02  0.1745321E+00
          4   -1    0    0  501    0  0.00000000000E+00  0.00000000000E+00  0.27309979384E+01  0.30781081429E+01  0.14200000000E+01 0.  1.
         -4   -1    0    0    0  501 -0.00000000000E+00 -0.00000000000E+00 -0.34067066359E+02  0.34096648081E+02  0.14200000000E+01 0. -1.
       1023    2    1    2    0    0  0.00000000000E+00  0.00000000000E+00 -0.31336068421E+02  0.37174756224E+02  0.20000332902E+02 0.  0.
        -11    1    3    3    0    0 -0.99932031354E+01  0.37310022644E+00 -0.15660575433E+02  0.18581090814E+02  0.51100000000E-03 0. -1.
         11    1    3    3    0    0  0.99932031354E+01 -0.37310022644E+00 -0.15675492988E+02  0.18593665410E+02  0.51100000000E-03 0.  1.
<mgrwt>
<rscale>  0 0.20000333E+02</rscale>
<asrwt>0</asrwt>
<pdfrwt beam="1">  1        4 0.44912986E-03 0.20000333E+02</pdfrwt>
<pdfrwt beam="2">  1       -4 0.52700631E-02 0.20000333E+02</pdfrwt>
<totfact> 0.12095786E+06</totfact>
</mgrwt>
</event>
<event>
 4    1  0.1154861E-006  0.2002025E+02  0.7818608E-02  0.1744926E+00
         -4   -1    0    0    0  501 -0.00000000000E+00  0.00000000000E+00  0.10485665702E+02  0.10581379174E+02  0.14200000000E+01 0.  1.
          4   -1    0    0  501    0  0.00000000000E+00 -0.00000000000E+00 -0.93632504657E+01  0.94703146349E+01  0.14200000000E+01 0. -1.
        -11    1    1    2    0    0 -0.99841767312E+01  0.58351473985E+00  0.13819684341E+00  0.10002168419E+02  0.51100000000E-03 0.  1.
         11    1    1    2    0    0  0.99841767312E+01 -0.58351473985E+00  0.98421839311E+00  0.10049525390E+02  0.51100000000E-03 0. -1.
<mgrwt>
<rscale>  0 0.20020255E+02</rscale>
<asrwt>0</asrwt>
<pdfrwt beam="2">  1        4 0.14560984E-02 0.20020255E+02</pdfrwt>
<pdfrwt beam="1">  1       -4 0.16287776E-02 0.20020255E+02</pdfrwt>
<totfact> 0.12984108E+06</totfact>
</mgrwt>
</event>
<event>
 5    1  0.1154861E-006  0.2000248E+02  0.7818608E-02  0.1745279E+00
          4   -1    0    0  501    0  0.00000000000E+00  0.00000000000E+00  0.97339166032E+00  0.17215955752E+01  0.14200000000E+01 0.  1.
         -4   -1    0    0    0  501 -0.00000000000E+00 -0.00000000000E+00 -0.73473266280E+02  0.73486986997E+02  0.14200000000E+01 0. -1.
       1023    2    1    2    0    0  0.00000000000E+00  0.00000000000E+00 -0.72499874620E+02  0.75208582572E+02  0.20002476662E+02 0.  0.
        -11    1    3    3    0    0 -0.84787984273E+01  0.53032585919E+01 -0.35870322016E+02  0.37238348195E+02  0.51100000000E-03 0. -1.
         11    1    3    3    0    0  0.84787984273E+01 -0.53032585919E+01 -0.36629552604E+02  0.37970234378E+02  0.51100000000E-03 0.  1.
<mgrwt>
<rscale>  0 0.20002477E+02</rscale>
<asrwt>0</asrwt>
<pdfrwt beam="1">  1        4 0.20836221E-03 0.20002477E+02</pdfrwt>
<pdfrwt beam="2">  1       -4 0.11362186E-01 0.20002477E+02</pdfrwt>
<totfact> 0.10568015E+06</totfact>
</mgrwt>
</event>
<event>
 5    1  0.1154861E-006  0.2000020E+02  0.7818608E-02  0.1745324E+00
         -4   -1    0    0    0  501 -0.00000000000E+00  0.00000000000E+00  0.12692004660E+01  0.19045392679E+01  0.14200000000E+01 0.  1.
          4   -1    0    0  501    0  0.00000000000E+00 -0.00000000000E+00 -0.62373387155E+02  0.62389549006E+02  0.14200000000E+01 0. -1.
       1023    2    1    2    0    0  0.00000000000E+00  0.00000000000E+00 -0.61104186689E+02  0.64294088274E+02  0.20000203900E+02 0.  0.
        -11    1    3    3    0    0 -0.56439249802E+01  0.82551428773E+01 -0.30641044393E+02  0.32231581948E+02  0.51100000000E-03 0.  1.
         11    1    3    3    0    0  0.56439249802E+01 -0.82551428773E+01 -0.30463142296E+02  0.32062506326E+02  0.51100000000E-03 0. -1.
<mgrwt>
<rscale>  0 0.20000204E+02</rscale>
<asrwt>0</asrwt>
<pdfrwt beam="2">  1        4 0.96460192E-02 0.20000204E+02</pdfrwt>
<pdfrwt beam="1">  1       -4 0.24537709E-03 0.20000204E+02</pdfrwt>
<totfact> 0.10956785E+06</totfact>
</mgrwt>
</event>
<event>
 5    1  0.1154861E-006  0.2000008E+02  0.7818608E-02  0.1745326E+00
          4   -1    0    0  501    0  0.00000000000E+00  0.00000000000E+00  0.20806228558E+02  0.20854628906E+02  0.14200000000E+01 0. -1.
         -4   -1    0    0    0  501 -0.00000000000E+00 -0.00000000000E+00 -0.46461076722E+01  0.48582627041E+01  0.14200000000E+01 0.  1.
       1023    2    1    2    0    0  0.00000000000E+00  0.00000000000E+00  0.16160120886E+02  0.25712891610E+02  0.20000082198E+02 0.  0.
        -11    1    3    3    0    0 -0.14131823658E+01  0.98996819503E+01  0.80876229578E+01  0.12861198719E+02  0.51100000000E-03 0. -1.
         11    1    3    3    0    0  0.14131823658E+01 -0.98996819503E+01  0.80724979282E+01  0.12851692891E+02  0.51100000000E-03 0.  1.
<mgrwt>
<rscale>  0 0.20000082E+02</rscale>
<asrwt>0</asrwt>
<pdfrwt beam="1">  1        4 0.32210009E-02 0.20000082E+02</pdfrwt>
<pdfrwt beam="2">  1       -4 0.73482852E-03 0.20000082E+02</pdfrwt>
<totfact> 0.12685898E+06</totfact>
</mgrwt>
</event>
<event>
 4    1  0.1154861E-006  0.2026307E+02  0.7818608E-02  0.1740147E+00
         -4   -1    0    0    0  501 -0.00000000000E+00  0.00000000000E+00  0.70366466426E+01  0.71784953837E+01  0.14200000000E+01 0. -1.
          4   -1    0    0  501    0  0.00000000000E+00 -0.00000000000E+00 -0.14264605724E+02  0.14335109922E+02  0.14200000000E+01 0.  1.
        -11    1    1    2    0    0 -0.48184140351E+01 -0.89104404505E+01 -0.34156572464E+01  0.10690172006E+02  0.51100000000E-03 0.  1.
         11    1    1    2    0    0  0.48184140351E+01  0.89104404505E+01 -0.38123018350E+01  0.10823433299E+02  0.51100000000E-03 0. -1.
<mgrwt>
<rscale>  0 0.20263065E+02</rscale>
<asrwt>0</asrwt>
<pdfrwt beam="2">  1        4 0.22108896E-02 0.20263065E+02</pdfrwt>
<pdfrwt beam="1">  1       -4 0.10988959E-02 0.20263065E+02</pdfrwt>
<totfact> 0.12583840E+06</totfact>
</mgrwt>
</event>
<event>
 5    1  0.1177083E-006  0.2000078E+02  0.7818608E-02  0.1745313E+00
          4   -1    0    0  501    0  0.00000000000E+00  0.00000000000E+00  0.34709379263E+01  0.37501746743E+01  0.14200000000E+01 0.  1.
         -4   -1    0    0    0  501 -0.00000000000E+00 -0.00000000000E+00 -0.27400393517E+02  0.27437163937E+02  0.14200000000E+01 0. -1.
       1023    2    1    2    0    0  0.00000000000E+00  0.00000000000E+00 -0.23929455591E+02  0.31187338611E+02  0.20000781104E+02 0.  0.
        -11    1    3    3    0    0  0.24662474764E+00  0.99971603558E+01 -0.12060494895E+02  0.15667149591E+02  0.51100000000E-03 0. -1.
         11    1    3    3    0    0 -0.24662474764E+00 -0.99971603558E+01 -0.11868960696E+02  0.15520189020E+02  0.51100000000E-03 0.  1.
<mgrwt>
<rscale>  0 0.20000781E+02</rscale>
<asrwt>0</asrwt>
<pdfrwt beam="1">  1        4 0.55829871E-03 0.20000781E+02</pdfrwt>
<pdfrwt beam="2">  1       -4 0.42397533E-02 0.20000781E+02</pdfrwt>
<totfact> 0.12393193E+06</totfact>
</mgrwt>
</event>
<event>
 5    1  0.1154861E-006  0.2000642E+02  0.7818608E-02  0.1745200E+00
          4   -1    0    0  501    0  0.00000000000E+00  0.00000000000E+00  0.41040450165E+01  0.43427624270E+01  0.14200000000E+01 0. -1.
         -4   -1    0    0    0  501 -0.00000000000E+00 -0.00000000000E+00 -0.23431975803E+02  0.23474963046E+02  0.14200000000E+01 0. -1.
       1023    2    1    2    0    0  0.00000000000E+00  0.00000000000E+00 -0.19327930786E+02  0.27817725473E+02  0.20006422519E+02 0.  0.
        -11    1    3    3    0    0  0.96485115552E+01  0.26368256243E+01 -0.94794469563E+01  0.13780658165E+02  0.51100000000E-03 0.  1.
         11    1    3    3    0    0 -0.96485115552E+01 -0.26368256243E+01 -0.98484838298E+01  0.14037067308E+02  0.51100000000E-03 0. -1.
<mgrwt>
<rscale>  0 0.20006423E+02</rscale>
<asrwt>0</asrwt>
<pdfrwt beam="1">  1        4 0.65306114E-03 0.20006423E+02</pdfrwt>
<pdfrwt beam="2">  1       -4 0.36265889E-02 0.20006423E+02</pdfrwt>
<totfact> 0.12563124E+06</totfact>
</mgrwt>
</event>
<event>
 5    1  0.1154861E-006  0.2000023E+02  0.7818608E-02  0.1745324E+00
         -4   -1    0    0    0  501 -0.00000000000E+00  0.00000000000E+00  0.14724850220E+02  0.14793161055E+02  0.14200000000E+01 0. -1.
          4   -1    0    0  501    0  0.00000000000E+00 -0.00000000000E+00 -0.66320364446E+01  0.67823526451E+01  0.14200000000E+01 0.  1.
       1023    2    1    2    0    0  0.00000000000E+00  0.00000000000E+00  0.80928137749E+01  0.21575513700E+02  0.20000228914E+02 0.  0.
        -11    1    3    3    0    0  0.43015500760E+01  0.90276516770E+01  0.40232439881E+01  0.10779068620E+02  0.51100000000E-03 0.  1.
         11    1    3    3    0    0 -0.43015500760E+01 -0.90276516770E+01  0.40695697868E+01  0.10796445080E+02  0.51100000000E-03 0. -1.
<mgrwt>
<rscale>  0 0.20000229E+02</rscale>
<asrwt>0</asrwt>
<pdfrwt beam="2">  1        4 0.10371308E-02 0.20000229E+02</pdfrwt>
<pdfrwt beam="1">  1       -4 0.22821790E-02 0.20000229E+02</pdfrwt>
<totfact> 0.12920647E+06</totfact>
</mgrwt>
</event>
<event>
 5    1  0.1154861E-006  0.2000212E+02  0.7818608E-02  0.1745286E+00
         -4   -1    0    0    0  501 -0.00000000000E+00  0.00000000000E+00  0.35661272116E+02  0.35689532484E+02  0.14200000000E+01 0.  1.
          4   -1    0    0  501    0  0.00000000000E+00 -0.00000000000E+00 -0.25936755935E+01  0.29569499631E+01  0.14200000000E+01 0. -1.
       1023    2    1    2    0    0  0.00000000000E+00  0.00000000000E+00  0.33067596522E+02  0.38646482447E+02  0.20002116532E+02 0.  0.
        -11    1    3    3    0    0 -0.87864680202E+01  0.47767088295E+01  0.16443201290E+02  0.19245722549E+02  0.51100000000E-03 0.  1.
         11    1    3    3    0    0  0.87864680202E+01 -0.47767088295E+01  0.16624395232E+02  0.19400759898E+02  0.51100000000E-03 0. -1.
<mgrwt>
<rscale>  0 0.20002117E+02</rscale>
<asrwt>0</asrwt>
<pdfrwt beam="2">  1        4 0.42914506E-03 0.20002117E+02</pdfrwt>
<pdfrwt beam="1">  1       -4 0.55164677E-02 0.20002117E+02</pdfrwt>
<totfact> 0.12023503E+06</totfact>
</mgrwt>
</event>
<event>
 5    1  0.1173509E-006  0.2000108E+02  0.7818608E-02  0.1745307E+00
         -4   -1    0    0    0  501 -0.00000000000E+00  0.00000000000E+00  0.44205885945E+02  0.44228686983E+02  0.14200000000E+01 0.  1.
          4   -1    0    0  501    0  0.00000000000E+00 -0.00000000000E+00 -0.20137933777E+01  0.24640949186E+01  0.14200000000E+01 0. -1.
       1023    2    1    2    0    0  0.00000000000E+00  0.00000000000E+00  0.42192092568E+02  0.46692781901E+02  0.20001080132E+02 0.  0.
        -11    1    3    3    0    0 -0.54009636011E+01 -0.84164231265E+01  0.20944477502E+02  0.23209431793E+02  0.51100000000E-03 0.  1.
         11    1    3    3    0    0  0.54009636011E+01  0.84164231265E+01  0.21247615066E+02  0.23483350108E+02  0.51100000000E-03 0. -1.
<mgrwt>
<rscale>  0 0.20001080E+02</rscale>
<asrwt>0</asrwt>
<pdfrwt beam="2">  1        4 0.34620685E-03 0.20001080E+02</pdfrwt>
<pdfrwt beam="1">  1       -4 0.68372984E-02 0.20001080E+02</pdfrwt>
<totfact> 0.11660329E+06</totfact>
</mgrwt>
</event>
<event>
 4    1  0.1154861E-006  0.2002498E+02  0.7818608E-02  0.1744832E+00
         -4   -1    0    0    0  501 -0.00000000000E+00  0.00000000000E+00  0.59137838759E+01  0.60818779773E+01  0.14200000000E+01 0. -1.
          4   -1    0    0  501    0  0.00000000000E+00 -0.00000000000E+00 -0.16515387006E+02  0.16576320700E+02  0.14200000000E+01 0.  1.
        -11    1    1    2    0    0  0.37028785033E+01  0.93008731371E+01 -0.55046092102E+01  0.11424459424E+02  0.51100000000E-03 0.  1.
         11    1    1    2    0    0 -0.37028785033E+01 -0.93008731371E+01 -0.50969939195E+01  0.11233739253E+02  0.51100000000E-03 0. -1.
<mgrwt>
<rscale>  0 0.20024984E+02</rscale>
<asrwt>0</asrwt>
<pdfrwt beam="2">  1        4 0.25584463E-02 0.20024984E+02</pdfrwt>
<pdfrwt beam="1">  1       -4 0.92743043E-03 0.20024984E+02</pdfrwt>
<totfact> 0.12825499E+06</totfact>
</mgrwt>
</event>
<event>
 5    1  0.1154861E-006  0.2000053E+02  0.7818608E-02  0.1745317E+00
          4   -1    0    0  501    0  0.00000000000E+00  0.00000000000E+00  0.64189518840E+01  0.65741420192E+01  0.14200000000E+01 0. -1.
         -4   -1    0    0    0  501 -0.00000000000E+00 -0.00000000000E+00 -0.15204947393E+02  0.15271110805E+02  0.14200000000E+01 0.  1.
       1023    2    1    2    0    0  0.00000000000E+00  0.00000000000E+00 -0.87859955086E+01  0.21845252824E+02  0.20000533840E+02 0.  0.
        -11    1    3    3    0    0 -0.11767590067E+01  0.99306164504E+01 -0.44569970559E+01  0.10948366447E+02  0.51100000000E-03 0. -1.
         11    1    3    3    0    0  0.11767590067E+01 -0.99306164504E+01 -0.43289984528E+01  0.10896886377E+02  0.51100000000E-03 0.  1.
<mgrwt>
<rscale>  0 0.20000534E+02</rscale>
<asrwt>0</asrwt>
<pdfrwt beam="1">  1        4 0.10045583E-02 0.20000534E+02</pdfrwt>
<pdfrwt beam="2">  1       -4 0.23562499E-02 0.20000534E+02</pdfrwt>
<totfact> 0.12904515E+06</totfact>
</mgrwt>
</event>
<event>
 5    1  0.1154861E-006  0.2000053E+02  0.7818608E-02  0.1745317E+00
          4   -1    0    0  501    0  0.00000000000E+00  0.00000000000E+00  0.82305879929E+02  0.82318128446E+02  0.14200000000E+01 0. -1.
         -4   -1    0    0    0  501 -0.00000000000E+00 -0.00000000000E+00 -0.78352568050E+00  0.16218238166E+01  0.14200000000E+01 0.  1.
       1023    2    1    2    0    0  0.00000000000E+00  0.00000000000E+00  0.81522354249E+02  0.83939952263E+02  0.20000533584E+02 0.  0.
        -11    1    3    3    0    0  0.90559932455E+01 -0.42413673797E+01  0.40460733398E+02  0.41678185641E+02  0.51100000000E-03 0. -1.
         11    1    3    3    0    0 -0.90559932455E+01  0.42413673797E+01  0.41061620851E+02  0.42261766622E+02  0.51100000000E-03 0.  1.
<mgrwt>
<rscale>  0 0.20000534E+02</rscale>
<asrwt>0</asrwt>
<pdfrwt beam="1">  1        4 0.12727878E-01 0.20000534E+02</pdfrwt>
<pdfrwt beam="2">  1       -4 0.18596896E-03 0.20000534E+02</pdfrwt>
<totfact> 0.10283682E+06</totfact>
</mgrwt>
</event>
<event>
 5    1  0.1154861E-006  0.2000082E+02  0.7818608E-02  0.1745312E+00
         -4   -1    0    0    0  501 -0.00000000000E+00  0.00000000000E+00  0.94590813566E+01  0.95650729276E+01  0.14200000000E+01 0. -1.
          4   -1    0    0  501    0  0.00000000000E+00 -0.00000000000E+00 -0.10359115394E+02  0.10455987364E+02  0.14200000000E+01 0.  1.
       1023    2    1    2    0    0  0.00000000000E+00  0.00000000000E+00 -0.90003403781E+00  0.20021060291E+02  0.20000819831E+02 0.  0.
        -11    1    3    3    0    0 -0.99329783662E+01  0.11573514786E+01 -0.38156248926E+00  0.10007452816E+02  0.51100000000E-03 0.  1.
         11    1    3    3    0    0  0.99329783662E+01 -0.11573514786E+01 -0.51847154856E+00  0.10013607476E+02  0.51100000000E-03 0. -1.
<mgrwt>
<rscale>  0 0.20000820E+02</rscale>
<asrwt>0</asrwt>
<pdfrwt beam="2">  1        4 0.16093150E-02 0.20000820E+02</pdfrwt>
<pdfrwt beam="1">  1       -4 0.14708482E-02 0.20000820E+02</pdfrwt>
<totfact> 0.13011706E+06</totfact>
</mgrwt>
</event>
<event>
 5    1  0.1154861E-006  0.2000099E+02  0.7818608E-02  0.1745308E+00
          4   -1    0    0  501    0  0.00000000000E+00  0.00000000000E+00  0.88002743580E+02  0.88014199296E+02  0.14200000000E+01 0.  1.
         -4   -1    0    0    0  501 -0.00000000000E+00 -0.00000000000E+00 -0.67674594845E+00  0.15730178253E+01  0.14200000000E+01 0. -1.
       1023    2    1    2    0    0  0.00000000000E+00  0.00000000000E+00  0.87325997632E+02  0.89587217121E+02  0.20000990203E+02 0.  0.
        -11    1    3    3    0    0  0.57606370165E+01  0.81745215065E+01  0.43454763937E+02  0.44590629619E+02  0.51100000000E-03 0.  1.
         11    1    3    3    0    0 -0.57606370165E+01 -0.81745215065E+01  0.43871233695E+02  0.44996587502E+02  0.51100000000E-03 0. -1.
<mgrwt>
<rscale>  0 0.20000990E+02</rscale>
<asrwt>0</asrwt>
<pdfrwt beam="1">  1        4 0.13608708E-01 0.20000990E+02</pdfrwt>
<pdfrwt beam="2">  1       -4 0.17393997E-03 0.20000990E+02</pdfrwt>
<totfact> 0.10107297E+06</totfact>
</mgrwt>
</event>
<event>
 5    1  0.1154861E-006  0.2000038E+02  0.7818608E-02  0.1745321E+00
         -4   -1    0    0    0  501 -0.00000000000E+00  0.00000000000E+00  0.65528883534E+01  0.67049791776E+01  0.14200000000E+01 0. -1.
          4   -1    0    0  501    0  0.00000000000E+00 -0.00000000000E+00 -0.14899716097E+02  0.14967228860E+02  0.14200000000E+01 0.  1.
       1023    2    1    2    0    0  0.00000000000E+00  0.00000000000E+00 -0.83468277432E+01  0.21672208038E+02  0.20000376693E+02 0.  0.
        -11    1    3    3    0    0 -0.47582696786E+01  0.87955227010E+01 -0.41326272818E+01  0.10820395484E+02  0.51100000000E-03 0.  1.
         11    1    3    3    0    0  0.47582696786E+01 -0.87955227010E+01 -0.42142004614E+01  0.10851812554E+02  0.51100000000E-03 0. -1.
<mgrwt>
<rscale>  0 0.20000377E+02</rscale>
<asrwt>0</asrwt>
<pdfrwt beam="2">  1        4 0.23091566E-02 0.20000377E+02</pdfrwt>
<pdfrwt beam="1">  1       -4 0.10250293E-02 0.20000377E+02</pdfrwt>
<totfact> 0.12914806E+06</totfact>
</mgrwt>
</event>
<event>
 5    1  0.1154861E-006  0.2000034E+02  0.7818608E-02  0.1745321E+00
          4   -1    0    0  501    0  0.00000000000E+00  0.00000000000E+00  0.77641277029E+01  0.78929132130E+01  0.14200000000E+01 0.  1.
         -4   -1    0    0    0  501 -0.00000000000E+00 -0.00000000000E+00 -0.12605258655E+02  0.12684988993E+02  0.14200000000E+01 0. -1.
       1023    2    1    2    0    0  0.00000000000E+00  0.00000000000E+00 -0.48411309517E+01  0.20577902206E+02  0.20000337755E+02 0.  0.
        -11    1    3    3    0    0  0.19936176294E+01  0.97993184457E+01 -0.23720436439E+01  0.10277535919E+02  0.51100000000E-03 0.  1.
         11    1    3    3    0    0 -0.19936176294E+01 -0.97993184457E+01 -0.24690873078E+01  0.10300366287E+02  0.51100000000E-03 0. -1.
<mgrwt>
<rscale>  0 0.20000338E+02</rscale>
<asrwt>0</asrwt>
<pdfrwt beam="1">  1        4 0.12105209E-02 0.20000338E+02</pdfrwt>
<pdfrwt beam="2">  1       -4 0.19553102E-02 0.20000338E+02</pdfrwt>
<totfact> 0.12979265E+06</totfact>
</mgrwt>
</event>
<event>
 5    1  0.1193799E-006  0.2000347E+02  0.7818608E-02  0.1745259E+00
         -4   -1    0    0    0  501 -0.00000000000E+00  0.00000000000E+00  0.13829010195E+02  0.13901723741E+02  0.14200000000E+01 0. -1.
          4   -1    0    0  501    0  0.00000000000E+00 -0.00000000000E+00 -0.70712318072E+01  0.72124003821E+01  0.14200000000E+01 0.  1.
       1023    2    1    2    0    0  0.00000000000E+00  0.00000000000E+00  0.67577783874E+01  0.21114124123E+02  0.20003466418E+02 0.  0.
        -11    1    3    3    0    0 -0.14411152431E+01  0.98960853311E+01  0.32108357715E+01  0.10503274948E+02  0.51100000000E-03 0. -1.
         11    1    3    3    0    0  0.14411152431E+01 -0.98960853311E+01  0.35469426159E+01  0.10610849175E+02  0.51100000000E-03 0.  1.
<mgrwt>
<rscale>  0 0.20003466E+02</rscale>
<asrwt>0</asrwt>
<pdfrwt beam="2">  1        4 0.11043343E-02 0.20003466E+02</pdfrwt>
<pdfrwt beam="1">  1       -4 0.21439925E-02 0.20003466E+02</pdfrwt>
<totfact> 0.12943443E+06</totfact>
</mgrwt>
</event>
<event>
 5    1  0.1154861E-006  0.2000366E+02  0.7818608E-02  0.1745255E+00
          4   -1    0    0  501    0  0.00000000000E+00  0.00000000000E+00  0.80012372626E+01  0.81262659157E+01  0.14200000000E+01 0.  1.
         -4   -1    0    0    0  501 -0.00000000000E+00 -0.00000000000E+00 -0.12239316680E+02  0.12321415211E+02  0.14200000000E+01 0. -1.
       1023    2    1    2    0    0  0.00000000000E+00  0.00000000000E+00 -0.42380794173E+01  0.20447681126E+02  0.20003658323E+02 0.  0.
        -11    1    3    3    0    0  0.78769920572E+01  0.61635564181E+01 -0.21317546429E+01  0.10226475918E+02  0.51100000000E-03 0.  1.
         11    1    3    3    0    0 -0.78769920572E+01 -0.61635564181E+01 -0.21063247744E+01  0.10221205208E+02  0.51100000000E-03 0. -1.
<mgrwt>
<rscale>  0 0.20003658E+02</rscale>
<asrwt>0</asrwt>
<pdfrwt beam="1">  1        4 0.12468924E-02 0.20003658E+02</pdfrwt>
<pdfrwt beam="2">  1       -4 0.18989047E-02 0.20003658E+02</pdfrwt>
<totfact> 0.12982574E+06</totfact>
</mgrwt>
</event>
<event>
 4    1  0.1154861E-006  0.2006863E+02  0.7818608E-02  0.1743967E+00
         -4   -1    0    0    0  501 -0.00000000000E+00  0.00000000000E+00  0.88998320619E+00  0.16758490706E+01  0.14200000000E+01 0. -1.
          4   -1    0    0  501    0  0.00000000000E+00 -0.00000000000E+00 -0.77688973063E+02  0.77701949368E+02  0.14200000000E+01 0.  1.
        -11    1    1    2    0    0 -0.10023135716E+02 -0.44394754144E+00 -0.39051477134E+02  0.40319699969E+02  0.51100000000E-03 0. -1.
         11    1    1    2    0    0  0.10023135716E+02  0.44394754144E+00 -0.37747512723E+02  0.39058098469E+02  0.51100000000E-03 0.  1.
<mgrwt>
<rscale>  0 0.20068633E+02</rscale>
<asrwt>0</asrwt>
<pdfrwt beam="2">  1        4 0.12013595E-01 0.20068633E+02</pdfrwt>
<pdfrwt beam="1">  1       -4 0.19836995E-03 0.20068633E+02</pdfrwt>
<totfact> 0.10360196E+06</totfact>
</mgrwt>
</event>
<event>
 5    1  0.1154861E-006  0.2000020E+02  0.7818608E-02  0.1745324E+00
         -4   -1    0    0    0  501 -0.00000000000E+00  0.00000000000E+00  0.17311132668E+02  0.17369275006E+02  0.14200000000E+01 0.  1.
          4   -1    0    0  501    0  0.00000000000E+00 -0.00000000000E+00 -0.56204651074E+01  0.57970706416E+01  0.14200000000E+01 0. -1.
       1023    2    1    2    0    0  0.00000000000E+00  0.00000000000E+00  0.11690667561E+02  0.23166345648E+02  0.20000196566E+02 0.  0.
        -11    1    3    3    0    0  0.25424816734E+01  0.96714157225E+01  0.58009195950E+01  0.11560759644E+02  0.51100000000E-03 0. -1.
         11    1    3    3    0    0 -0.25424816734E+01 -0.96714157225E+01  0.58897479656E+01  0.11605586004E+02  0.51100000000E-03 0.  1.
<mgrwt>
<rscale>  0 0.20000197E+02</rscale>
<asrwt>0</asrwt>
<pdfrwt beam="2">  1        4 0.88274448E-03 0.20000197E+02</pdfrwt>
<pdfrwt beam="1">  1       -4 0.26813087E-02 0.20000197E+02</pdfrwt>
<totfact> 0.12828811E+06</totfact>
</mgrwt>
</event>
<event>
 5    1  0.1154861E-006  0.2000164E+02  0.7818608E-02  0.1745295E+00
          4   -1    0    0  501    0  0.00000000000E+00  0.00000000000E+00  0.82878404886E+00  0.16441663540E+01  0.14200000000E+01 0. -1.
         -4   -1    0    0    0  501 -0.00000000000E+00 -0.00000000000E+00 -0.80064559772E+02  0.80077151120E+02  0.14200000000E+01 0.  1.
       1023    2    1    2    0    0  0.00000000000E+00  0.00000000000E+00 -0.79235775723E+02  0.81721317474E+02  0.20001639314E+02 0.  0.
        -11    1    3    3    0    0 -0.86549650947E+01  0.50104825698E+01 -0.39392720976E+02  0.40642340269E+02  0.51100000000E-03 0. -1.
         11    1    3    3    0    0  0.86549650947E+01 -0.50104825698E+01 -0.39843054747E+02  0.41078977205E+02  0.51100000000E-03 0.  1.
<mgrwt>
<rscale>  0 0.20001639E+02</rscale>
<asrwt>0</asrwt>
<pdfrwt beam="1">  1        4 0.19119558E-03 0.20001639E+02</pdfrwt>
<pdfrwt beam="2">  1       -4 0.12381311E-01 0.20001639E+02</pdfrwt>
<totfact> 0.10353557E+06</totfact>
</mgrwt>
</event>
<event>
 5    1  0.1154861E-006  0.2000024E+02  0.7818608E-02  0.1745323E+00
         -4   -1    0    0    0  501 -0.00000000000E+00  0.00000000000E+00  0.29425696708E+02  0.29459939354E+02  0.14200000000E+01 0. -1.
          4   -1    0    0  501    0  0.00000000000E+00 -0.00000000000E+00 -0.32122331367E+01  0.35120993330E+01  0.14200000000E+01 0.  1.
       1023    2    1    2    0    0  0.00000000000E+00  0.00000000000E+00  0.26213463571E+02  0.32972038687E+02  0.20000241568E+02 0.  0.
        -11    1    3    3    0    0 -0.86406083624E+01  0.50340852464E+01  0.13078740091E+02  0.16463765358E+02  0.51100000000E-03 0.  1.
         11    1    3    3    0    0  0.86406083624E+01 -0.50340852464E+01  0.13134723480E+02  0.16508273329E+02  0.51100000000E-03 0. -1.
<mgrwt>
<rscale>  0 0.20000242E+02</rscale>
<asrwt>0</asrwt>
<pdfrwt beam="2">  1        4 0.51989041E-03 0.20000242E+02</pdfrwt>
<pdfrwt beam="1">  1       -4 0.45527308E-02 0.20000242E+02</pdfrwt>
<totfact> 0.12302810E+06</totfact>
</mgrwt>
</event>
<event>
 4    1  0.1154861E-006  0.2002239E+02  0.7818608E-02  0.1744883E+00
          4   -1    0    0  501    0  0.00000000000E+00  0.00000000000E+00  0.69102260539E+01  0.70546172196E+01  0.14200000000E+01 0. -1.
         -4   -1    0    0    0  501 -0.00000000000E+00 -0.00000000000E+00 -0.14173524689E+02  0.14244479706E+02  0.14200000000E+01 0.  1.
        -11    1    1    2    0    0  0.23170152719E+01  0.97391047537E+01 -0.35543211668E+01  0.10623178451E+02  0.51100000000E-03 0. -1.
         11    1    1    2    0    0 -0.23170152719E+01 -0.97391047537E+01 -0.37089774681E+01  0.10675918475E+02  0.51100000000E-03 0.  1.
<mgrwt>
<rscale>  0 0.20022388E+02</rscale>
<asrwt>0</asrwt>
<pdfrwt beam="1">  1        4 0.10796768E-02 0.20022388E+02</pdfrwt>
<pdfrwt beam="2">  1       -4 0.21971074E-02 0.20022388E+02</pdfrwt>
<totfact> 0.12907644E+06</totfact>
</mgrwt>
</event>
<event>
 5    1  0.1154861E-006  0.2001039E+02  0.7818608E-02  0.1745122E+00
         -4   -1    0    0    0  501 -0.00000000000E+00  0.00000000000E+00  0.42893794338E+01  0.45183156073E+01  0.14200000000E+01 0.  1.
          4   -1    0    0  501    0  0.00000000000E+00 -0.00000000000E+00 -0.22479084191E+02  0.22523890118E+02  0.14200000000E+01 0. -1.
       1023    2    1    2    0    0  0.00000000000E+00  0.00000000000E+00 -0.18189704757E+02  0.27042205725E+02  0.20010385587E+02 0.  0.
        -11    1    3    3    0    0 -0.77493560552E+01  0.63218815999E+01 -0.94892607725E+01  0.13786398243E+02  0.51100000000E-03 0. -1.
         11    1    3    3    0    0  0.77493560552E+01 -0.63218815999E+01 -0.87004439844E+01  0.13255807483E+02  0.51100000000E-03 0.  1.
<mgrwt>
<rscale>  0 0.20010386E+02</rscale>
<asrwt>0</asrwt>
<pdfrwt beam="2">  1        4 0.34793777E-02 0.20010386E+02</pdfrwt>
<pdfrwt beam="1">  1       -4 0.68096162E-03 0.20010386E+02</pdfrwt>
<totfact> 0.12599888E+06</totfact>
</mgrwt>
</event>
<event>
 5    1  0.1196427E-006  0.2000102E+02  0.7818608E-02  0.1745308E+00
         -4   -1    0    0    0  501 -0.00000000000E+00  0.00000000000E+00  0.13636967593E+02  0.13710699658E+02  0.14200000000E+01 0.  1.
          4   -1    0    0  501    0  0.00000000000E+00 -0.00000000000E+00 -0.71704382393E+01  0.73096911387E+01  0.14200000000E+01 0. -1.
       1023    2    1    2    0    0  0.00000000000E+00  0.00000000000E+00  0.64665293534E+01  0.21020390797E+02  0.20001020659E+02 0.  0.
        -11    1    3    3    0    0 -0.80857588548E+01  0.58844073514E+01  0.31630742450E+01  0.10488602627E+02  0.51100000000E-03 0.  1.
         11    1    3    3    0    0  0.80857588548E+01 -0.58844073514E+01  0.33034551084E+01  0.10531788170E+02  0.51100000000E-03 0. -1.
<mgrwt>
<rscale>  0 0.20001021E+02</rscale>
<asrwt>0</asrwt>
<pdfrwt beam="2">  1        4 0.11195278E-02 0.20001021E+02</pdfrwt>
<pdfrwt beam="1">  1       -4 0.21143784E-02 0.20001021E+02</pdfrwt>
<totfact> 0.12952198E+06</totfact>
</mgrwt>
</event>
<event>
 5    1  0.1154861E-006  0.2000345E+02  0.7818608E-02  0.1745259E+00
         -4   -1    0    0    0  501 -0.00000000000E+00  0.00000000000E+00  0.11082971533E+02  0.11173569618E+02  0.14200000000E+01 0. -1.
          4   -1    0    0  501    0  0.00000000000E+00 -0.00000000000E+00 -0.88417448298E+01  0.89550461548E+01  0.14200000000E+01 0.  1.
       1023    2    1    2    0    0  0.00000000000E+00  0.00000000000E+00  0.22412267037E+01  0.20128615773E+02  0.20003451597E+02 0.  0.
        -11    1    3    3    0    0 -0.99138409706E+01  0.13174882489E+01  0.99944138673E+00  0.10050815958E+02  0.51100000000E-03 0.  1.
         11    1    3    3    0    0  0.99138409706E+01 -0.13174882489E+01  0.12417853170E+01  0.10077799815E+02  0.51100000000E-03 0. -1.
<mgrwt>
<rscale>  0 0.20003452E+02</rscale>
<asrwt>0</asrwt>
<pdfrwt beam="2">  1        4 0.13759530E-02 0.20003452E+02</pdfrwt>
<pdfrwt beam="1">  1       -4 0.17207571E-02 0.20003452E+02</pdfrwt>
<totfact> 0.13001826E+06</totfact>
</mgrwt>
</event>
<event>
 5    1  0.1170564E-006  0.2000047E+02  0.7818608E-02  0.1745319E+00
         -4   -1    0    0    0  501 -0.00000000000E+00  0.00000000000E+00  0.10048762663E+02  0.10148597492E+02  0.14200000000E+01 0. -1.
          4   -1    0    0  501    0  0.00000000000E+00 -0.00000000000E+00 -0.97512326193E+01  0.98540822807E+01  0.14200000000E+01 0.  1.
       1023    2    1    2    0    0  0.00000000000E+00  0.00000000000E+00  0.29753004370E+00  0.20002679773E+02  0.20000466844E+02 0.  0.
        -11    1    3    3    0    0 -0.28039213058E+01  0.95989486178E+01  0.20242702226E+00  0.10002138082E+02  0.51100000000E-03 0. -1.
         11    1    3    3    0    0  0.28039213058E+01 -0.95989486178E+01  0.95103021443E-01  0.10000541690E+02  0.51100000000E-03 0.  1.
<mgrwt>
<rscale>  0 0.20000467E+02</rscale>
<asrwt>0</asrwt>
<pdfrwt beam="2">  1        4 0.15157808E-02 0.20000467E+02</pdfrwt>
<pdfrwt beam="1">  1       -4 0.15615546E-02 0.20000467E+02</pdfrwt>
<totfact> 0.13013266E+06</totfact>
</mgrwt>
</event>
<event>
 5    1  0.1164433E-006  0.2000076E+02  0.7818608E-02  0.1745313E+00
          4   -1    0    0  501    0  0.00000000000E+00  0.00000000000E+00  0.44953644886E+01  0.47143082086E+01  0.14200000000E+01 0. -1.
         -4   -1    0    0    0  501 -0.00000000000E+00 -0.00000000000E+00 -0.21474995176E+02  0.21521891595E+02  0.14200000000E+01 0.  1.
       1023    2    1    2    0    0  0.00000000000E+00  0.00000000000E+00 -0.16979630688E+02  0.26236199803E+02  0.20000758032E+02 0.  0.
        -11    1    3    3    0    0  0.74163634067E+01  0.67084900431E+01 -0.85370270485E+01  0.13148654529E+02  0.51100000000E-03 0. -1.
         11    1    3    3    0    0 -0.74163634067E+01 -0.67084900431E+01 -0.84426036391E+01  0.13087545274E+02  0.51100000000E-03 0.  1.
<mgrwt>
<rscale>  0 0.20000758E+02</rscale>
<asrwt>0</asrwt>
<pdfrwt beam="1">  1        4 0.71204379E-03 0.20000758E+02</pdfrwt>
<pdfrwt beam="2">  1       -4 0.33242946E-02 0.20000758E+02</pdfrwt>
<totfact> 0.12656211E+06</totfact>
</mgrwt>
</event>
<event>
 5    1  0.1168142E-006  0.2000070E+02  0.7818608E-02  0.1745314E+00
         -4   -1    0    0    0  501 -0.00000000000E+00  0.00000000000E+00  0.64851601427E+01  0.66388027593E+01  0.14200000000E+01 0. -1.
          4   -1    0    0  501    0  0.00000000000E+00 -0.00000000000E+00 -0.15052921467E+02  0.15119750153E+02  0.14200000000E+01 0.  1.
       1023    2    1    2    0    0  0.00000000000E+00  0.00000000000E+00 -0.85677613247E+01  0.21758552913E+02  0.20000702256E+02 0.  0.
        -11    1    3    3    0    0 -0.60666613455E+01 -0.79498959132E+01 -0.42377573228E+01  0.10861114689E+02  0.51100000000E-03 0.  1.
         11    1    3    3    0    0  0.60666613455E+01  0.79498959132E+01 -0.43300040019E+01  0.10897438223E+02  0.51100000000E-03 0. -1.
<mgrwt>
<rscale>  0 0.20000702E+02</rscale>
<asrwt>0</asrwt>
<pdfrwt beam="2">  1        4 0.23327934E-02 0.20000702E+02</pdfrwt>
<pdfrwt beam="1">  1       -4 0.10146763E-02 0.20000702E+02</pdfrwt>
<totfact> 0.12909342E+06</totfact>
</mgrwt>
</event>
<event>
 5    1  0.1190482E-006  0.2000123E+02  0.7818608E-02  0.1745304E+00
          4   -1    0    0  501    0  0.00000000000E+00  0.00000000000E+00  0.33921308540E+01  0.36773566227E+01  0.14200000000E+01 0.  1.
         -4   -1    0    0    0  501 -0.00000000000E+00 -0.00000000000E+00 -0.27990112649E+02  0.28026109365E+02  0.14200000000E+01 0. -1.
       1023    2    1    2    0    0  0.00000000000E+00  0.00000000000E+00 -0.24597981796E+02  0.31703465988E+02  0.20001226143E+02 0.  0.
        -11    1    3    3    0    0 -0.91810025754E+01 -0.39645651649E+01 -0.12395098101E+02  0.15926300337E+02  0.51100000000E-03 0. -1.
         11    1    3    3    0    0  0.91810025754E+01  0.39645651649E+01 -0.12202883695E+02  0.15777165651E+02  0.51100000000E-03 0.  1.
<mgrwt>
<rscale>  0 0.20001226E+02</rscale>
<asrwt>0</asrwt>
<pdfrwt beam="1">  1        4 0.54657573E-03 0.20001226E+02</pdfrwt>
<pdfrwt beam="2">  1       -4 0.43308805E-02 0.20001226E+02</pdfrwt>
<totfact> 0.12366097E+06</totfact>
</mgrwt>
</event>
<event>
 5    1  0.1154861E-006  0.2000099E+02  0.7818608E-02  0.1745308E+00
         -4   -1    0    0    0  501 -0.00000000000E+00  0.00000000000E+00  0.92879913842E+00  0.16967816122E+01  0.14200000000E+01 0. -1.
          4   -1    0    0  501    0  0.00000000000E+00 -0.00000000000E+00 -0.75404552548E+02  0.75417921908E+02  0.14200000000E+01 0.  1.
       1023    2    1    2    0    0  0.00000000000E+00  0.00000000000E+00 -0.74475753410E+02  0.77114703521E+02  0.20000991304E+02 0.  0.
        -11    1    3    3    0    0  0.22266100770E+01 -0.97493104721E+01 -0.37451360553E+02  0.38763529956E+02  0.51100000000E-03 0.  1.
         11    1    3    3    0    0 -0.22266100770E+01  0.97493104721E+01 -0.37024392856E+02  0.38351173564E+02  0.51100000000E-03 0. -1.
<mgrwt>
<rscale>  0 0.20000991E+02</rscale>
<asrwt>0</asrwt>
<pdfrwt beam="2">  1        4 0.11660801E-01 0.20000991E+02</pdfrwt>
<pdfrwt beam="1">  1       -4 0.20299622E-03 0.20000991E+02</pdfrwt>
<totfact> 0.10505455E+06</totfact>
</mgrwt>
</event>
<event>
 5    1  0.1154861E-006  0.2000096E+02  0.7818608E-02  0.1745309E+00
          4   -1    0    0  501    0  0.00000000000E+00  0.00000000000E+00  0.62710113713E+02  0.62726188804E+02  0.14200000000E+01 0.  1.
         -4   -1    0    0    0  501 -0.00000000000E+00 -0.00000000000E+00 -0.12591126926E+01  0.18978315975E+01  0.14200000000E+01 0. -1.
       1023    2    1    2    0    0  0.00000000000E+00  0.00000000000E+00  0.61451001021E+02  0.64624020402E+02  0.20000962139E+02 0.  0.
        -11    1    3    3    0    0  0.85362469867E+01 -0.52097422604E+01  0.30810638339E+02  0.32392967788E+02  0.51100000000E-03 0. -1.
         11    1    3    3    0    0 -0.85362469867E+01  0.52097422604E+01  0.30640362682E+02  0.32231052614E+02  0.51100000000E-03 0.  1.
<mgrwt>
<rscale>  0 0.20000962E+02</rscale>
<asrwt>0</asrwt>
<pdfrwt beam="1">  1        4 0.96980760E-02 0.20000962E+02</pdfrwt>
<pdfrwt beam="2">  1       -4 0.24407848E-03 0.20000962E+02</pdfrwt>
<totfact> 0.10943761E+06</totfact>
</mgrwt>
</event>
<event>
 5    1  0.1154861E-006  0.2000034E+02  0.7818608E-02  0.1745321E+00
          4   -1    0    0  501    0  0.00000000000E+00  0.00000000000E+00  0.28277973196E+02  0.28313603940E+02  0.14200000000E+01 0.  1.
         -4   -1    0    0    0  501 -0.00000000000E+00 -0.00000000000E+00 -0.33544038635E+01  0.36425849722E+01  0.14200000000E+01 0. -1.
       1023    2    1    2    0    0  0.00000000000E+00  0.00000000000E+00  0.24923569332E+02  0.31956188912E+02  0.20000342535E+02 0.  0.
        -11    1    3    3    0    0 -0.99278040706E+01  0.11996182220E+01  0.12549989964E+02  0.16046888356E+02  0.51100000000E-03 0.  1.
         11    1    3    3    0    0  0.99278040706E+01 -0.11996182220E+01  0.12373579368E+02  0.15909300556E+02  0.51100000000E-03 0. -1.
<mgrwt>
<rscale>  0 0.20000343E+02</rscale>
<asrwt>0</asrwt>
<pdfrwt beam="1">  1        4 0.43753660E-02 0.20000343E+02</pdfrwt>
<pdfrwt beam="2">  1       -4 0.54097074E-03 0.20000343E+02</pdfrwt>
<totfact> 0.12354272E+06</totfact>
</mgrwt>
</event>
<event>
 5    1  0.1154861E-006  0.2000072E+02  0.7818608E-02  0.1745314E+00
         -4   -1    0    0    0  501 -0.00000000000E+00  0.00000000000E+00  0.47398831896E+01  0.49480190633E+01  0.14200000000E+01 0. -1.
          4   -1    0    0  501    0  0.00000000000E+00 -0.00000000000E+00 -0.20412466607E+02  0.20461798381E+02  0.14200000000E+01 0.  1.
       1023    2    1    2    0    0  0.00000000000E+00  0.00000000000E+00 -0.15672583417E+02  0.25409817444E+02  0.20000723776E+02 0.  0.
        -11    1    3    3    0    0  0.69286792185E+01 -0.72108344503E+01 -0.79215957253E+01  0.12757523595E+02  0.51100000000E-03 0.  1.
         11    1    3    3    0    0 -0.69286792185E+01  0.72108344503E+01 -0.77509876922E+01  0.12652293849E+02  0.51100000000E-03 0. -1.
<mgrwt>
<rscale>  0 0.20000724E+02</rscale>
<asrwt>0</asrwt>
<pdfrwt beam="2">  1        4 0.31601846E-02 0.20000724E+02</pdfrwt>
<pdfrwt beam="1">  1       -4 0.74901801E-03 0.20000724E+02</pdfrwt>
<totfact> 0.12701852E+06</totfact>
</mgrwt>
</event>
<event>
 4    1  0.1154861E-006  0.2002776E+02  0.7818608E-02  0.1744777E+00
         -4   -1    0    0    0  501 -0.00000000000E+00  0.00000000000E+00  0.32664130588E+01  0.35617206896E+01  0.14200000000E+01 0. -1.
          4   -1    0    0  501    0  0.00000000000E+00 -0.00000000000E+00 -0.29058560206E+02  0.29093234974E+02  0.14200000000E+01 0.  1.
        -11    1    1    2    0    0 -0.99511255938E+01 -0.11011289900E+01 -0.13223930030E+02  0.16586431544E+02  0.51100000000E-03 0.  1.
         11    1    1    2    0    0  0.99511255938E+01  0.11011289900E+01 -0.12568217116E+02  0.16068524120E+02  0.51100000000E-03 0. -1.
<mgrwt>
<rscale>  0 0.20027763E+02</rscale>
<asrwt>0</asrwt>
<pdfrwt beam="2">  1        4 0.44959308E-02 0.20027763E+02</pdfrwt>
<pdfrwt beam="1">  1       -4 0.52790837E-03 0.20027763E+02</pdfrwt>
<totfact> 0.12284505E+06</totfact>
</mgrwt>
</event>
<event>
 5    1  0.1154861E-006  0.2000664E+02  0.7818608E-02  0.1745196E+00
         -4   -1    0    0    0  501 -0.00000000000E+00  0.00000000000E+00  0.51668258848E+01  0.53584036544E+01  0.14200000000E+01 0. -1.
          4   -1    0    0  501    0  0.00000000000E+00 -0.00000000000E+00 -0.18795731985E+02  0.18849295500E+02  0.14200000000E+01 0.  1.
       1023    2    1    2    0    0  0.00000000000E+00  0.00000000000E+00 -0.13628906100E+02  0.24207699154E+02  0.20006639320E+02 0.  0.
        -11    1    3    3    0    0 -0.22801430307E+01  0.97384560554E+01 -0.66054886538E+01  0.11986202868E+02  0.51100000000E-03 0. -1.
         11    1    3    3    0    0  0.22801430307E+01 -0.97384560554E+01 -0.70234174463E+01  0.12221496286E+02  0.51100000000E-03 0.  1.
<mgrwt>
<rscale>  0 0.20006639E+02</rscale>
<asrwt>0</asrwt>
<pdfrwt beam="2">  1        4 0.29105081E-02 0.20006639E+02</pdfrwt>
<pdfrwt beam="1">  1       -4 0.81375332E-03 0.20006639E+02</pdfrwt>
<totfact> 0.12761427E+06</totfact>
</mgrwt>
</event>
<event>
 4    1  0.1154861E-006  0.2002177E+02  0.7818608E-02  0.1744895E+00
          4   -1    0    0  501    0  0.00000000000E+00  0.00000000000E+00  0.35512164068E+01  0.38245964451E+01  0.14200000000E+01 0.  1.
         -4   -1    0    0    0  501 -0.00000000000E+00 -0.00000000000E+00 -0.26881915099E+02  0.26919393741E+02  0.14200000000E+01 0. -1.
        -11    1    1    2    0    0 -0.74222488299E+01  0.67144824893E+01 -0.11343969856E+02  0.15128109767E+02  0.51100000000E-03 0. -1.
         11    1    1    2    0    0  0.74222488299E+01 -0.67144824893E+01 -0.11986728837E+02  0.15615880419E+02  0.51100000000E-03 0.  1.
<mgrwt>
<rscale>  0 0.20021774E+02</rscale>
<asrwt>0</asrwt>
<pdfrwt beam="1">  1        4 0.57025321E-03 0.20021774E+02</pdfrwt>
<pdfrwt beam="2">  1       -4 0.41595913E-02 0.20021774E+02</pdfrwt>
<totfact> 0.12389643E+06</totfact>
</mgrwt>
</event>
<event>
 5    1  0.1220976E-006  0.2000122E+02  0.7818608E-02  0.1745304E+00
          4   -1    0    0  501    0  0.00000000000E+00  0.00000000000E+00  0.14047964358E+02  0.14119550368E+02  0.14200000000E+01 0.  1.
         -4   -1    0    0    0  501 -0.00000000000E+00 -0.00000000000E+00 -0.69577658431E+01  0.71011904303E+01  0.14200000000E+01 0. -1.
       1023    2    1    2    0    0  0.00000000000E+00  0.00000000000E+00  0.70901985150E+01  0.21220740799E+02  0.20001223089E+02 0.  0.
        -11    1    3    3    0    0 -0.63299541565E+01 -0.77423016513E+01  0.35726951656E+01  0.10619590646E+02  0.51100000000E-03 0.  1.
         11    1    3    3    0    0  0.63299541565E+01  0.77423016513E+01  0.35175033494E+01  0.10601150153E+02  0.51100000000E-03 0. -1.
<mgrwt>
<rscale>  0 0.20001223E+02</rscale>
<asrwt>0</asrwt>
<pdfrwt beam="1">  1        4 0.21777646E-02 0.20001223E+02</pdfrwt>
<pdfrwt beam="2">  1       -4 0.10869648E-02 0.20001223E+02</pdfrwt>
<totfact> 0.12940131E+06</totfact>
</mgrwt>
</event>
<event>
 5    1  0.1154861E-006  0.2000044E+02  0.7818608E-02  0.1745319E+00
          4   -1    0    0  501    0  0.00000000000E+00  0.00000000000E+00  0.87219508780E+01  0.88367882807E+01  0.14200000000E+01 0. -1.
         -4   -1    0    0    0  501 -0.00000000000E+00 -0.00000000000E+00 -0.11231009813E+02  0.11320423200E+02  0.14200000000E+01 0.  1.
       1023    2    1    2    0    0  0.00000000000E+00  0.00000000000E+00 -0.25090589352E+01  0.20157211480E+02  0.20000444943E+02 0.  0.
        -11    1    3    3    0    0  0.96831541120E+01 -0.24973427947E+01 -0.11887906785E+01  0.10070422937E+02  0.51100000000E-03 0.  1.
         11    1    3    3    0    0 -0.96831541120E+01  0.24973427947E+01 -0.13202682567E+01  0.10086788544E+02  0.51100000000E-03 0. -1.
<mgrwt>
<rscale>  0 0.20000445E+02</rscale>
<asrwt>0</asrwt>
<pdfrwt beam="1">  1        4 0.13575502E-02 0.20000445E+02</pdfrwt>
<pdfrwt beam="2">  1       -4 0.17435593E-02 0.20000445E+02</pdfrwt>
<totfact> 0.13004106E+06</totfact>
</mgrwt>
</event>
<event>
 5    1  0.1154861E-006  0.2000120E+02  0.7818608E-02  0.1745304E+00
          4   -1    0    0  501    0  0.00000000000E+00  0.00000000000E+00  0.40560837145E+02  0.40585686022E+02  0.14200000000E+01 0. -1.
         -4   -1    0    0    0  501 -0.00000000000E+00 -0.00000000000E+00 -0.22334674653E+01  0.26466539099E+01  0.14200000000E+01 0.  1.
       1023    2    1    2    0    0  0.00000000000E+00  0.00000000000E+00  0.38327369680E+02  0.43232339932E+02  0.20001198700E+02 0.  0.
        -11    1    3    3    0    0 -0.68336036482E+01  0.73013783748E+01  0.19295555188E+02  0.21733078826E+02  0.51100000000E-03 0.  1.
         11    1    3    3    0    0  0.68336036482E+01 -0.73013783748E+01  0.19031814491E+02  0.21499261106E+02  0.51100000000E-03 0. -1.
<mgrwt>
<rscale>  0 0.20001199E+02</rscale>
<asrwt>0</asrwt>
<pdfrwt beam="1">  1        4 0.62738238E-02 0.20001199E+02</pdfrwt>
<pdfrwt beam="2">  1       -4 0.37730541E-03 0.20001199E+02</pdfrwt>
<totfact> 0.11813259E+06</totfact>
</mgrwt>
</event>
<event>
 5    1  0.1154861E-006  0.2000044E+02  0.7818608E-02  0.1745319E+00
          4   -1    0    0  501    0  0.00000000000E+00  0.00000000000E+00  0.58943406815E+01  0.60629738635E+01  0.14200000000E+01 0.  1.
         -4   -1    0    0    0  501 -0.00000000000E+00 -0.00000000000E+00 -0.16527394011E+02  0.16588283600E+02  0.14200000000E+01 0. -1.
       1023    2    1    2    0    0  0.00000000000E+00  0.00000000000E+00 -0.10633053330E+02  0.22651257464E+02  0.20000441035E+02 0.  0.
        -11    1    3    3    0    0 -0.55134847848E+01  0.83430111922E+01 -0.53252924646E+01  0.11329743612E+02  0.51100000000E-03 0. -1.
         11    1    3    3    0    0  0.55134847848E+01 -0.83430111922E+01 -0.53077608653E+01  0.11321513852E+02  0.51100000000E-03 0.  1.
<mgrwt>
<rscale>  0 0.20000441E+02</rscale>
<asrwt>0</asrwt>
<pdfrwt beam="1">  1        4 0.92447725E-03 0.20000441E+02</pdfrwt>
<pdfrwt beam="2">  1       -4 0.25603316E-02 0.20000441E+02</pdfrwt>
<totfact> 0.12858009E+06</totfact>
</mgrwt>
</event>
<event>
 5    1  0.1154861E-006  0.2000096E+02  0.7818608E-02  0.1745309E+00
         -4   -1    0    0    0  501 -0.00000000000E+00  0.00000000000E+00  0.17357621035E+01  0.22426034157E+01  0.14200000000E+01 0. -1.
          4   -1    0    0  501    0  0.00000000000E+00 -0.00000000000E+00 -0.49758490512E+02  0.49778748257E+02  0.14200000000E+01 0.  1.
       1023    2    1    2    0    0  0.00000000000E+00  0.00000000000E+00 -0.48022728408E+02  0.52021351673E+02  0.20000964628E+02 0.  0.
        -11    1    3    3    0    0 -0.57545216221E+01 -0.81788005506E+01 -0.23885313510E+02  0.25894314034E+02  0.51100000000E-03 0. -1.
         11    1    3    3    0    0  0.57545216221E+01  0.81788005506E+01 -0.24137414898E+02  0.26127037639E+02  0.51100000000E-03 0.  1.
<mgrwt>
<rscale>  0 0.20000965E+02</rscale>
<asrwt>0</asrwt>
<pdfrwt beam="2">  1        4 0.76956975E-02 0.20000965E+02</pdfrwt>
<pdfrwt beam="1">  1       -4 0.30758644E-03 0.20000965E+02</pdfrwt>
<totfact> 0.11434925E+06</totfact>
</mgrwt>
</event>
<event>
 5    1  0.1173908E-006  0.2000186E+02  0.7818608E-02  0.1745291E+00
          4   -1    0    0  501    0  0.00000000000E+00  0.00000000000E+00  0.79225789651E+01  0.80488295707E+01  0.14200000000E+01 0. -1.
         -4   -1    0    0    0  501 -0.00000000000E+00 -0.00000000000E+00 -0.12357481046E+02  0.12438799693E+02  0.14200000000E+01 0.  1.
       1023    2    1    2    0    0  0.00000000000E+00  0.00000000000E+00 -0.44349020804E+01  0.20487629263E+02  0.20001864822E+02 0.  0.
        -11    1    3    3    0    0 -0.77174400785E+01 -0.63600180167E+01 -0.21153389640E+01  0.10221710705E+02  0.51100000000E-03 0. -1.
         11    1    3    3    0    0  0.77174400785E+01  0.63600180167E+01 -0.23195631164E+01  0.10265918558E+02  0.51100000000E-03 0.  1.
<mgrwt>
<rscale>  0 0.20001865E+02</rscale>
<asrwt>0</asrwt>
<pdfrwt beam="1">  1        4 0.12348252E-02 0.20001865E+02</pdfrwt>
<pdfrwt beam="2">  1       -4 0.19171178E-02 0.20001865E+02</pdfrwt>
<totfact> 0.12982584E+06</totfact>
</mgrwt>
</event>
<event>
 5    1  0.1154861E-006  0.2000041E+02  0.7818608E-02  0.1745320E+00
         -4   -1    0    0    0  501 -0.00000000000E+00  0.00000000000E+00  0.28966830302E+01  0.32260149686E+01  0.14200000000E+01 0. -1.
          4   -1    0    0  501    0  0.00000000000E+00 -0.00000000000E+00 -0.32320918138E+02  0.32352096521E+02  0.14200000000E+01 0.  1.
       1023    2    1    2    0    0  0.00000000000E+00  0.00000000000E+00 -0.29424235108E+02  0.35578111490E+02  0.20000410133E+02 0.  0.
        -11    1    3    3    0    0  0.74966515049E+01 -0.66181976833E+01 -0.14602796749E+02  0.17698643946E+02  0.51100000000E-03 0. -1.
         11    1    3    3    0    0 -0.74966515049E+01  0.66181976833E+01 -0.14821438359E+02  0.17879467544E+02  0.51100000000E-03 0.  1.
<mgrwt>
<rscale>  0 0.20000410E+02</rscale>
<asrwt>0</asrwt>
<pdfrwt beam="2">  1        4 0.50001803E-02 0.20000410E+02</pdfrwt>
<pdfrwt beam="1">  1       -4 0.47337513E-03 0.20000410E+02</pdfrwt>
<totfact> 0.12173098E+06</totfact>
</mgrwt>
</event>
<event>
 4    1  0.1468684E-006  0.2017360E+02  0.7818608E-02  0.1741898E+00
         -4   -1    0    0    0  501 -0.00000000000E+00  0.00000000000E+00  0.74048436328E+00  0.16014734129E+01  0.14200000000E+01 0.  1.
          4   -1    0    0  501    0  0.00000000000E+00 -0.00000000000E+00 -0.86018607776E+02  0.86030327698E+02  0.14200000000E+01 0. -1.
        -11    1    1    2    0    0 -0.68653427856E+01 -0.72768407413E+01 -0.37045367317E+02  0.38372445617E+02  0.51100000000E-03 0. -1.
         11    1    1    2    0    0  0.68653427856E+01  0.72768407413E+01 -0.48232756096E+02  0.49259355494E+02  0.51100000000E-03 0.  1.
<mgrwt>
<rscale>  0 0.20173602E+02</rscale>
<asrwt>0</asrwt>
<pdfrwt beam="2">  1        4 0.13300758E-01 0.20173602E+02</pdfrwt>
<pdfrwt beam="1">  1       -4 0.18105220E-03 0.20173602E+02</pdfrwt>
<totfact> 0.99940403E+05</totfact>
</mgrwt>
</event>
<event>
 5    1  0.1154861E-006  0.2000043E+02  0.7818608E-02  0.1745320E+00
         -4   -1    0    0    0  501 -0.00000000000E+00  0.00000000000E+00  0.42787999712E+01  0.45082734160E+01  0.14200000000E+01 0. -1.
          4   -1    0    0  501    0  0.00000000000E+00 -0.00000000000E+00 -0.22509249961E+02  0.22553995961E+02  0.14200000000E+01 0.  1.
       1023    2    1    2    0    0  0.00000000000E+00  0.00000000000E+00 -0.18230449990E+02  0.27062269377E+02  0.20000427920E+02 0.  0.
        -11    1    3    3    0    0  0.76164847637E+01 -0.64799568707E+01 -0.91963851025E+01  0.13585808052E+02  0.51100000000E-03 0. -1.
         11    1    3    3    0    0 -0.76164847637E+01  0.64799568707E+01 -0.90340648873E+01  0.13476461325E+02  0.51100000000E-03 0.  1.
<mgrwt>
<rscale>  0 0.20000428E+02</rscale>
<asrwt>0</asrwt>
<pdfrwt beam="2">  1        4 0.34840553E-02 0.20000428E+02</pdfrwt>
<pdfrwt beam="1">  1       -4 0.67937074E-03 0.20000428E+02</pdfrwt>
<totfact> 0.12611567E+06</totfact>
</mgrwt>
</event>
<event>
 5    1  0.1154861E-006  0.2000247E+02  0.7818608E-02  0.1745279E+00
         -4   -1    0    0    0  501 -0.00000000000E+00  0.00000000000E+00  0.29322015478E+01  0.32579450451E+01  0.14200000000E+01 0.  1.
          4   -1    0    0  501    0  0.00000000000E+00 -0.00000000000E+00 -0.31975056960E+02  0.32006572256E+02  0.14200000000E+01 0. -1.
       1023    2    1    2    0    0  0.00000000000E+00  0.00000000000E+00 -0.29042855412E+02  0.35264517301E+02  0.20002468098E+02 0.  0.
        -11    1    3    3    0    0  0.20656528368E+00 -0.99986669274E+01 -0.14357243457E+02  0.17497041164E+02  0.51100000000E-03 0.  1.
         11    1    3    3    0    0 -0.20656528368E+00  0.99986669274E+01 -0.14685611955E+02  0.17767476138E+02  0.51100000000E-03 0. -1.
<mgrwt>
<rscale>  0 0.20002468E+02</rscale>
<asrwt>0</asrwt>
<pdfrwt beam="2">  1        4 0.49467207E-02 0.20002468E+02</pdfrwt>
<pdfrwt beam="1">  1       -4 0.47858940E-03 0.20002468E+02</pdfrwt>
<totfact> 0.12185928E+06</totfact>
</mgrwt>
</event>
<event>
 5    1  0.1154861E-006  0.2000105E+02  0.7818608E-02  0.1745307E+00
          4   -1    0    0  501    0  0.00000000000E+00  0.00000000000E+00  0.45362074082E+02  0.45384294255E+02  0.14200000000E+01 0.  1.
         -4   -1    0    0    0  501 -0.00000000000E+00 -0.00000000000E+00 -0.19508628325E+01  0.24129371710E+01  0.14200000000E+01 0. -1.
       1023    2    1    2    0    0  0.00000000000E+00  0.00000000000E+00  0.43411211249E+02  0.47797231426E+02  0.20001051718E+02 0.  0.
        -11    1    3    3    0    0  0.45327657896E+01 -0.89142813780E+01  0.21733780929E+02  0.23924205565E+02  0.51100000000E-03 0.  1.
         11    1    3    3    0    0 -0.45327657896E+01  0.89142813780E+01  0.21677430320E+02  0.23873025860E+02  0.51100000000E-03 0. -1.
<mgrwt>
<rscale>  0 0.20001052E+02</rscale>
<asrwt>0</asrwt>
<pdfrwt beam="1">  1        4 0.70160341E-02 0.20001052E+02</pdfrwt>
<pdfrwt beam="2">  1       -4 0.33738617E-03 0.20001052E+02</pdfrwt>
<totfact> 0.11612634E+06</totfact>
</mgrwt>
</event>
<event>
 5    1  0.1154861E-006  0.2000063E+02  0.7818608E-02  0.1745316E+00
          4   -1    0    0  501    0  0.00000000000E+00  0.00000000000E+00  0.42736697553E+02  0.42760282012E+02  0.14200000000E+01 0.  1.
         -4   -1    0    0    0  501 -0.00000000000E+00 -0.00000000000E+00 -0.20980844386E+01  0.25334479098E+01  0.14200000000E+01 0. -1.
       1023    2    1    2    0    0  0.00000000000E+00  0.00000000000E+00  0.40638613114E+02  0.45293729922E+02  0.20000627349E+02 0.  0.
        -11    1    3    3    0    0 -0.40851202698E+01 -0.91277492825E+01  0.20211677835E+02  0.22550297908E+02  0.51100000000E-03 0. -1.
         11    1    3    3    0    0  0.40851202698E+01  0.91277492825E+01  0.20426935280E+02  0.22743432014E+02  0.51100000000E-03 0.  1.
<mgrwt>
<rscale>  0 0.20000627E+02</rscale>
<asrwt>0</asrwt>
<pdfrwt beam="1">  1        4 0.66101798E-02 0.20000627E+02</pdfrwt>
<pdfrwt beam="2">  1       -4 0.35808593E-03 0.20000627E+02</pdfrwt>
<totfact> 0.11722096E+06</totfact>
</mgrwt>
</event>
<event>
 5    1  0.1154861E-006  0.2000029E+02  0.7818608E-02  0.1745322E+00
          4   -1    0    0  501    0  0.00000000000E+00  0.00000000000E+00  0.31577583090E+02  0.31609494678E+02  0.14200000000E+01 0. -1.
         -4   -1    0    0    0  501 -0.00000000000E+00 -0.00000000000E+00 -0.29724193274E+01  0.32941883155E+01  0.14200000000E+01 0.  1.
       1023    2    1    2    0    0  0.00000000000E+00  0.00000000000E+00  0.28605163762E+02  0.34903682993E+02  0.20000292314E+02 0.  0.
        -11    1    3    3    0    0 -0.99227685504E+01 -0.12415269680E+01  0.14278026575E+02  0.17431717301E+02  0.51100000000E-03 0. -1.
         11    1    3    3    0    0  0.99227685504E+01  0.12415269680E+01  0.14327137187E+02  0.17471965693E+02  0.51100000000E-03 0.  1.
<mgrwt>
<rscale>  0 0.20000292E+02</rscale>
<asrwt>0</asrwt>
<pdfrwt beam="1">  1        4 0.48852961E-02 0.20000292E+02</pdfrwt>
<pdfrwt beam="2">  1       -4 0.48450146E-03 0.20000292E+02</pdfrwt>
<totfact> 0.12206374E+06</totfact>
</mgrwt>
</event>
<event>
 5    1  0.1154861E-006  0.2000040E+02  0.7818608E-02  0.1745320E+00
          4   -1    0    0  501    0  0.00000000000E+00  0.00000000000E+00  0.99081971312E+02  0.99092146202E+02  0.14200000000E+01 0.  1.
         -4   -1    0    0    0  501 -0.00000000000E+00 -0.00000000000E+00 -0.49447506371E+00  0.15036308020E+01  0.14200000000E+01 0. -1.
       1023    2    1    2    0    0  0.00000000000E+00  0.00000000000E+00  0.98587496248E+02  0.10059577700E+03  0.20000398363E+02 0.  0.
        -11    1    3    3    0    0 -0.39003128729E+01  0.92081058641E+01  0.49536495031E+02  0.50535789242E+02  0.51100000000E-03 0.  1.
         11    1    3    3    0    0  0.39003128729E+01 -0.92081058641E+01  0.49051001217E+02  0.50059987762E+02  0.51100000000E-03 0. -1.
<mgrwt>
<rscale>  0 0.20000398E+02</rscale>
<asrwt>0</asrwt>
<pdfrwt beam="1">  1        4 0.15321795E-01 0.20000398E+02</pdfrwt>
<pdfrwt beam="2">  1       -4 0.15448309E-03 0.20000398E+02</pdfrwt>
<totfact> 0.97839271E+05</totfact>
</mgrwt>
</event>
<event>
 5    1  0.1154861E-006  0.2000047E+02  0.7818608E-02  0.1745319E+00
          4   -1    0    0  501    0  0.00000000000E+00  0.00000000000E+00  0.74570837427E+02  0.74584356232E+02  0.14200000000E+01 0.  1.
         -4   -1    0    0    0  501 -0.00000000000E+00 -0.00000000000E+00 -0.94762935662E+00  0.17071617959E+01  0.14200000000E+01 0. -1.
       1023    2    1    2    0    0  0.00000000000E+00  0.00000000000E+00  0.73623208070E+02  0.76291518028E+02  0.20000473906E+02 0.  0.
        -11    1    3    3    0    0  0.81513963932E+01  0.57930534214E+01  0.36822223463E+02  0.38156007026E+02  0.51100000000E-03 0. -1.
         11    1    3    3    0    0 -0.81513963932E+01 -0.57930534214E+01  0.36800984607E+02  0.38135511002E+02  0.51100000000E-03 0.  1.
<mgrwt>
<rscale>  0 0.20000474E+02</rscale>
<asrwt>0</asrwt>
<pdfrwt beam="1">  1        4 0.11531902E-01 0.20000474E+02</pdfrwt>
<pdfrwt beam="2">  1       -4 0.20525460E-03 0.20000474E+02</pdfrwt>
<totfact> 0.10533582E+06</totfact>
</mgrwt>
</event>
<event>
 5    1  0.1154861E-006  0.2000397E+02  0.7818608E-02  0.1745249E+00
         -4   -1    0    0    0  501 -0.00000000000E+00  0.00000000000E+00  0.60365450548E+02  0.60382149845E+02  0.14200000000E+01 0.  1.
          4   -1    0    0  501    0  0.00000000000E+00 -0.00000000000E+00 -0.13329351042E+01  0.19475923578E+01  0.14200000000E+01 0. -1.
       1023    2    1    2    0    0  0.00000000000E+00  0.00000000000E+00  0.59032515444E+02  0.62329742202E+02  0.20003971691E+02 0.  0.
        -11    1    3    3    0    0  0.10001385457E+02 -0.79326667281E-02  0.29175691851E+02  0.30842321074E+02  0.51100000000E-03 0.  1.
         11    1    3    3    0    0 -0.10001385457E+02  0.79326667281E-02  0.29856823593E+02  0.31487421128E+02  0.51100000000E-03 0. -1.
<mgrwt>
<rscale>  0 0.20003972E+02</rscale>
<asrwt>0</asrwt>
<pdfrwt beam="2">  1        4 0.25363282E-03 0.20003972E+02</pdfrwt>
<pdfrwt beam="1">  1       -4 0.93355586E-02 0.20003972E+02</pdfrwt>
<totfact> 0.11025903E+06</totfact>
</mgrwt>
</event>
<event>
 5    1  0.1191073E-006  0.2000087E+02  0.7818608E-02  0.1745311E+00
          4   -1    0    0  501    0  0.00000000000E+00  0.00000000000E+00  0.20952321122E+02  0.21000384767E+02  0.14200000000E+01 0. -1.
         -4   -1    0    0    0  501 -0.00000000000E+00 -0.00000000000E+00 -0.46126901287E+01  0.48263143520E+01  0.14200000000E+01 0.  1.
       1023    2    1    2    0    0  0.00000000000E+00  0.00000000000E+00  0.16339630993E+02  0.25826699119E+02  0.20000871142E+02 0.  0.
        -11    1    3    3    0    0 -0.27193723213E+01 -0.96235895444E+01  0.81494065949E+01  0.12900437576E+02  0.51100000000E-03 0.  1.
         11    1    3    3    0    0  0.27193723213E+01  0.96235895444E+01  0.81902243980E+01  0.12926261544E+02  0.51100000000E-03 0. -1.
<mgrwt>
<rscale>  0 0.20000871E+02</rscale>
<asrwt>0</asrwt>
<pdfrwt beam="1">  1        4 0.32435638E-02 0.20000871E+02</pdfrwt>
<pdfrwt beam="2">  1       -4 0.72977448E-03 0.20000871E+02</pdfrwt>
<totfact> 0.12678595E+06</totfact>
</mgrwt>
</event>
<event>
 5    1  0.1166057E-006  0.2000103E+02  0.7818608E-02  0.1745308E+00
         -4   -1    0    0    0  501 -0.00000000000E+00  0.00000000000E+00  0.58187171306E+02  0.58204495570E+02  0.14200000000E+01 0.  1.
          4   -1    0    0  501    0  0.00000000000E+00 -0.00000000000E+00 -0.14048144288E+01  0.19974743001E+01  0.14200000000E+01 0. -1.
       1023    2    1    2    0    0  0.00000000000E+00  0.00000000000E+00  0.56782356877E+02  0.60201969870E+02  0.20001028067E+02 0.  0.
        -11    1    3    3    0    0  0.99016214303E+01 -0.14000929075E+01  0.28658937854E+02  0.30353534988E+02  0.51100000000E-03 0. -1.
         11    1    3    3    0    0 -0.99016214303E+01  0.14000929075E+01  0.28123419023E+02  0.29848434882E+02  0.51100000000E-03 0.  1.
<mgrwt>
<rscale>  0 0.20001028E+02</rscale>
<asrwt>0</asrwt>
<pdfrwt beam="2">  1        4 0.26304716E-03 0.20001028E+02</pdfrwt>
<pdfrwt beam="1">  1       -4 0.89987941E-02 0.20001028E+02</pdfrwt>
<totfact> 0.11109958E+06</totfact>
</mgrwt>
</event>
<event>
 5    1  0.1154861E-006  0.2000105E+02  0.7818608E-02  0.1745307E+00
          4   -1    0    0  501    0  0.00000000000E+00  0.00000000000E+00  0.80342749763E+02  0.80355297520E+02  0.14200000000E+01 0. -1.
         -4   -1    0    0    0  501 -0.00000000000E+00 -0.00000000000E+00 -0.82298865861E+00  0.16412526717E+01  0.14200000000E+01 0.  1.
       1023    2    1    2    0    0  0.00000000000E+00  0.00000000000E+00  0.79519761105E+02  0.81996550192E+02  0.20001045902E+02 0.  0.
        -11    1    3    3    0    0  0.96184313258E+01 -0.27365146467E+01  0.39399546818E+02  0.40648825608E+02  0.51100000000E-03 0. -1.
         11    1    3    3    0    0 -0.96184313258E+01  0.27365146467E+01  0.40120214287E+02  0.41347724584E+02  0.51100000000E-03 0.  1.
<mgrwt>
<rscale>  0 0.20001046E+02</rscale>
<asrwt>0</asrwt>
<pdfrwt beam="1">  1        4 0.12424333E-01 0.20001046E+02</pdfrwt>
<pdfrwt beam="2">  1       -4 0.19052222E-03 0.20001046E+02</pdfrwt>
<totfact> 0.10345298E+06</totfact>
</mgrwt>
</event>
<event>
 5    1  0.1154861E-006  0.2000088E+02  0.7818608E-02  0.1745311E+00
         -4   -1    0    0    0  501 -0.00000000000E+00  0.00000000000E+00  0.32001539731E+00  0.14556132228E+01  0.14200000000E+01 0. -1.
          4   -1    0    0  501    0  0.00000000000E+00 -0.00000000000E+00 -0.11150308614E+03  0.11151212767E+03  0.14200000000E+01 0.  1.
       1023    2    1    2    0    0  0.00000000000E+00  0.00000000000E+00 -0.11118307074E+03  0.11296774090E+03  0.20000881579E+02 0.  0.
        -11    1    3    3    0    0  0.93486838848E+01 -0.35511838534E+01 -0.55615881509E+02  0.56507831966E+02  0.51100000000E-03 0.  1.
         11    1    3    3    0    0 -0.93486838848E+01  0.35511838534E+01 -0.55567189230E+02  0.56459908930E+02  0.51100000000E-03 0. -1.
<mgrwt>
<rscale>  0 0.20000882E+02</rscale>
<asrwt>0</asrwt>
<pdfrwt beam="2">  1        4 0.17242359E-01 0.20000882E+02</pdfrwt>
<pdfrwt beam="1">  1       -4 0.13728241E-03 0.20000882E+02</pdfrwt>
<totfact> 0.94458178E+05</totfact>
</mgrwt>
</event>
<event>
 5    1  0.1221375E-006  0.2000218E+02  0.7818608E-02  0.1745285E+00
         -4   -1    0    0    0  501 -0.00000000000E+00  0.00000000000E+00  0.11988640152E+02  0.12072443526E+02  0.14200000000E+01 0. -1.
          4   -1    0    0  501    0  0.00000000000E+00 -0.00000000000E+00 -0.81687180483E+01  0.82912215356E+01  0.14200000000E+01 0.  1.
       1023    2    1    2    0    0  0.00000000000E+00  0.00000000000E+00  0.38199221037E+01  0.20363665062E+02  0.20002176128E+02 0.  0.
        -11    1    3    3    0    0  0.98981871809E+01 -0.14235915189E+01  0.17622881523E+01  0.10154131281E+02  0.51100000000E-03 0.  1.
         11    1    3    3    0    0 -0.98981871809E+01  0.14235915189E+01  0.20576339515E+01  0.10209533781E+02  0.51100000000E-03 0. -1.
<mgrwt>
<rscale>  0 0.20002176E+02</rscale>
<asrwt>0</asrwt>
<pdfrwt beam="2">  1        4 0.12725956E-02 0.20002176E+02</pdfrwt>
<pdfrwt beam="1">  1       -4 0.18602759E-02 0.20002176E+02</pdfrwt>
<totfact> 0.12989520E+06</totfact>
</mgrwt>
</event>
<event>
 5    1  0.1185855E-006  0.2000091E+02  0.7818608E-02  0.1745310E+00
         -4   -1    0    0    0  501 -0.00000000000E+00  0.00000000000E+00  0.83997321624E+01  0.85189142736E+01  0.14200000000E+01 0.  1.
          4   -1    0    0  501    0  0.00000000000E+00 -0.00000000000E+00 -0.11659786823E+02  0.11745936692E+02  0.14200000000E+01 0. -1.
       1023    2    1    2    0    0  0.00000000000E+00  0.00000000000E+00 -0.32600546609E+01  0.20264850965E+02  0.20000905686E+02 0.  0.
        -11    1    3    3    0    0 -0.26460146199E+01 -0.96440188310E+01 -0.16059605366E+01  0.10128553800E+02  0.51100000000E-03 0. -1.
         11    1    3    3    0    0  0.26460146199E+01  0.96440188310E+01 -0.16540941243E+01  0.10136297165E+02  0.51100000000E-03 0.  1.
<mgrwt>
<rscale>  0 0.20000906E+02</rscale>
<asrwt>0</asrwt>
<pdfrwt beam="2">  1        4 0.18096081E-02 0.20000906E+02</pdfrwt>
<pdfrwt beam="1">  1       -4 0.13080613E-02 0.20000906E+02</pdfrwt>
<totfact> 0.12997078E+06</totfact>
</mgrwt>
</event>
<event>
 5    1  0.1154861E-006  0.2000022E+02  0.7818608E-02  0.1745324E+00
         -4   -1    0    0    0  501 -0.00000000000E+00  0.00000000000E+00  0.93306671204E+02  0.93317475808E+02  0.14200000000E+01 0.  1.
          4   -1    0    0  501    0  0.00000000000E+00 -0.00000000000E+00 -0.58568586179E+00  0.15360429449E+01  0.14200000000E+01 0. -1.
       1023    2    1    2    0    0  0.00000000000E+00  0.00000000000E+00  0.92720985342E+02  0.94853518753E+02  0.20000222423E+02 0.  0.
        -11    1    3    3    0    0  0.85389493077E+01  0.52046617021E+01  0.46322177170E+02  0.47389305299E+02  0.51100000000E-03 0.  1.
         11    1    3    3    0    0 -0.85389493077E+01 -0.52046617021E+01  0.46398808173E+02  0.47464213454E+02  0.51100000000E-03 0. -1.
<mgrwt>
<rscale>  0 0.20000222E+02</rscale>
<asrwt>0</asrwt>
<pdfrwt beam="2">  1        4 0.16404096E-03 0.20000222E+02</pdfrwt>
<pdfrwt beam="1">  1       -4 0.14428815E-01 0.20000222E+02</pdfrwt>
<totfact> 0.99500901E+05</totfact>
</mgrwt>
</event>
<event>
 5    1  0.1154861E-006  0.2000176E+02  0.7818608E-02  0.1745293E+00
          4   -1    0    0  501    0  0.00000000000E+00  0.00000000000E+00  0.25919422070E+01  0.29554296481E+01  0.14200000000E+01 0. -1.
         -4   -1    0    0    0  501 -0.00000000000E+00 -0.00000000000E+00 -0.35680904333E+02  0.35709149164E+02  0.14200000000E+01 0.  1.
       1023    2    1    2    0    0  0.00000000000E+00  0.00000000000E+00 -0.33088962126E+02  0.38664578812E+02  0.20001755927E+02 0.  0.
        -11    1    3    3    0    0 -0.59471932863E+01 -0.80402085126E+01 -0.16658823849E+02  0.19430143417E+02  0.51100000000E-03 0. -1.
         11    1    3    3    0    0  0.59471932863E+01  0.80402085126E+01 -0.16430138277E+02  0.19234435395E+02  0.51100000000E-03 0.  1.
<mgrwt>
<rscale>  0 0.20001756E+02</rscale>
<asrwt>0</asrwt>
<pdfrwt beam="1">  1        4 0.42889362E-03 0.20001756E+02</pdfrwt>
<pdfrwt beam="2">  1       -4 0.55195028E-02 0.20001756E+02</pdfrwt>
<totfact> 0.12023087E+06</totfact>
</mgrwt>
</event>
<event>
 5    1  0.1154861E-006  0.2000048E+02  0.7818608E-02  0.1745318E+00
          4   -1    0    0  501    0  0.00000000000E+00  0.00000000000E+00  0.32327041058E+02  0.32358213541E+02  0.14200000000E+01 0. -1.
         -4   -1    0    0    0  501 -0.00000000000E+00 -0.00000000000E+00 -0.28960967830E+01  0.32254885795E+01  0.14200000000E+01 0.  1.
       1023    2    1    2    0    0  0.00000000000E+00  0.00000000000E+00  0.29430944275E+02  0.35583702121E+02  0.20000484386E+02 0.  0.
        -11    1    3    3    0    0 -0.60933143759E+01 -0.79292289055E+01  0.14607360272E+02  0.17702432757E+02  0.51100000000E-03 0. -1.
         11    1    3    3    0    0  0.60933143759E+01  0.79292289055E+01  0.14823584003E+02  0.17881269364E+02  0.51100000000E-03 0.  1.
<mgrwt>
<rscale>  0 0.20000484E+02</rscale>
<asrwt>0</asrwt>
<pdfrwt beam="1">  1        4 0.50011262E-02 0.20000484E+02</pdfrwt>
<pdfrwt beam="2">  1       -4 0.47328911E-03 0.20000484E+02</pdfrwt>
<totfact> 0.12172732E+06</totfact>
</mgrwt>
</event>
<event>
 4    1  0.1154861E-006  0.2002937E+02  0.7818608E-02  0.1744745E+00
         -4   -1    0    0    0  501 -0.00000000000E+00  0.00000000000E+00  0.95377510792E+02  0.95388080833E+02  0.14200000000E+01 0.  1.
          4   -1    0    0  501    0  0.00000000000E+00 -0.00000000000E+00 -0.55659558191E+00  0.15251880677E+01  0.14200000000E+01 0. -1.
        -11    1    1    2    0    0 -0.73614641826E+01 -0.67704469196E+01  0.44925184682E+02  0.46025018472E+02  0.51100000000E-03 0.  1.
         11    1    1    2    0    0  0.73614641826E+01  0.67704469196E+01  0.49895730529E+02  0.50888250428E+02  0.51100000000E-03 0. -1.
<mgrwt>
<rscale>  0 0.20029372E+02</rscale>
<asrwt>0</asrwt>
<pdfrwt beam="2">  1        4 0.16095027E-03 0.20029372E+02</pdfrwt>
<pdfrwt beam="1">  1       -4 0.14748785E-01 0.20029372E+02</pdfrwt>
<totfact> 0.98611082E+05</totfact>
</mgrwt>
</event>
<event>
 4    1  0.1154861E-006  0.2001636E+02  0.7818608E-02  0.1745003E+00
         -4   -1    0    0    0  501 -0.00000000000E+00  0.00000000000E+00  0.32358986155E+02  0.32390127894E+02  0.14200000000E+01 0. -1.
          4   -1    0    0  501    0  0.00000000000E+00 -0.00000000000E+00 -0.28980859705E+01  0.32272747469E+01  0.14200000000E+01 0.  1.
        -11    1    1    2    0    0  0.30572648315E+01  0.95253911212E+01  0.14215530860E+02  0.17382786375E+02  0.51100000000E-03 0.  1.
         11    1    1    2    0    0 -0.30572648315E+01 -0.95253911212E+01  0.15245369325E+02  0.18234616266E+02  0.51100000000E-03 0. -1.
<mgrwt>
<rscale>  0 0.20016362E+02</rscale>
<asrwt>0</asrwt>
<pdfrwt beam="2">  1        4 0.47357710E-03 0.20016362E+02</pdfrwt>
<pdfrwt beam="1">  1       -4 0.50060234E-02 0.20016362E+02</pdfrwt>
<totfact> 0.12151517E+06</totfact>
</mgrwt>
</event>
<event>
 5    1  0.1169851E-006  0.2000077E+02  0.7818608E-02  0.1745313E+00
          4   -1    0    0  501    0  0.00000000000E+00  0.00000000000E+00  0.37876697191E+01  0.40451009754E+01  0.14200000000E+01 0.  1.
         -4   -1    0    0    0  501 -0.00000000000E+00 -0.00000000000E+00 -0.25257687038E+02  0.25297572107E+02  0.14200000000E+01 0. -1.
       1023    2    1    2    0    0  0.00000000000E+00  0.00000000000E+00 -0.21470017319E+02  0.29342673082E+02  0.20000770484E+02 0.  0.
        -11    1    3    3    0    0  0.21386105065E+01  0.97687645898E+01 -0.10841694688E+02  0.14749398648E+02  0.51100000000E-03 0. -1.
         11    1    3    3    0    0 -0.21386105065E+01 -0.97687645898E+01 -0.10628322630E+02  0.14593274434E+02  0.51100000000E-03 0.  1.
<mgrwt>
<rscale>  0 0.20000770E+02</rscale>
<asrwt>0</asrwt>
<pdfrwt beam="1">  1        4 0.60558892E-03 0.20000770E+02</pdfrwt>
<pdfrwt beam="2">  1       -4 0.39086684E-02 0.20000770E+02</pdfrwt>
<totfact> 0.12489238E+06</totfact>
</mgrwt>
</event>
<event>
 5    1  0.1172743E-006  0.2000181E+02  0.7818608E-02  0.1745292E+00
          4   -1    0    0  501    0  0.00000000000E+00  0.00000000000E+00  0.17426271616E+02  0.17484031069E+02  0.14200000000E+01 0. -1.
         -4   -1    0    0    0  501 -0.00000000000E+00 -0.00000000000E+00 -0.55832243316E+01  0.57609716140E+01  0.14200000000E+01 0.  1.
       1023    2    1    2    0    0  0.00000000000E+00  0.00000000000E+00  0.11843047284E+02  0.23245002683E+02  0.20001809437E+02 0.  0.
        -11    1    3    3    0    0 -0.96322538783E+01 -0.26902825940E+01  0.59362107090E+01  0.11629984224E+02  0.51100000000E-03 0. -1.
         11    1    3    3    0    0  0.96322538783E+01  0.26902825940E+01  0.59068365751E+01  0.11615018459E+02  0.51100000000E-03 0.  1.
<mgrwt>
<rscale>  0 0.20001809E+02</rscale>
<asrwt>0</asrwt>
<pdfrwt beam="1">  1        4 0.26990807E-02 0.20001809E+02</pdfrwt>
<pdfrwt beam="2">  1       -4 0.87707351E-03 0.20001809E+02</pdfrwt>
<totfact> 0.12822216E+06</totfact>
</mgrwt>
</event>
<event>
 4    1  0.1154861E-006  0.2058748E+02  0.7818608E-02  0.1733892E+00
         -4   -1    0    0    0  501 -0.00000000000E+00  0.00000000000E+00  0.16945036363E+02  0.17004430521E+02  0.14200000000E+01 0.  1.
          4   -1    0    0  501    0  0.00000000000E+00 -0.00000000000E+00 -0.61012097547E+01  0.62642765321E+01  0.14200000000E+01 0. -1.
        -11    1    1    2    0    0 -0.44085038198E+01  0.92844106538E+01  0.47767368647E+01  0.11333684417E+02  0.51100000000E-03 0. -1.
         11    1    1    2    0    0  0.44085038198E+01 -0.92844106538E+01  0.60670897437E+01  0.11935022637E+02  0.51100000000E-03 0.  1.
<mgrwt>
<rscale>  0 0.20587476E+02</rscale>
<asrwt>0</asrwt>
<pdfrwt beam="2">  1        4 0.95576005E-03 0.20587476E+02</pdfrwt>
<pdfrwt beam="1">  1       -4 0.26240410E-02 0.20587476E+02</pdfrwt>
<totfact> 0.12083442E+06</totfact>
</mgrwt>
</event>
<event>
 5    1  0.1154861E-006  0.2000031E+02  0.7818608E-02  0.1745322E+00
          4   -1    0    0  501    0  0.00000000000E+00  0.00000000000E+00  0.12698628647E+02  0.12777776392E+02  0.14200000000E+01 0. -1.
         -4   -1    0    0    0  501 -0.00000000000E+00 -0.00000000000E+00 -0.77064303004E+01  0.78361641110E+01  0.14200000000E+01 0.  1.
       1023    2    1    2    0    0  0.00000000000E+00  0.00000000000E+00  0.49921983470E+01  0.20613940503E+02  0.20000312466E+02 0.  0.
        -11    1    3    3    0    0 -0.69601926591E+01  0.71804423071E+01  0.24862756253E+01  0.10304591225E+02  0.51100000000E-03 0. -1.
         11    1    3    3    0    0  0.69601926591E+01 -0.71804423071E+01  0.25059227216E+01  0.10309349277E+02  0.51100000000E-03 0.  1.
<mgrwt>
<rscale>  0 0.20000312E+02</rscale>
<asrwt>0</asrwt>
<pdfrwt beam="1">  1        4 0.19697030E-02 0.20000312E+02</pdfrwt>
<pdfrwt beam="2">  1       -4 0.12016725E-02 0.20000312E+02</pdfrwt>
<totfact> 0.12977169E+06</totfact>
</mgrwt>
</event>
<event>
 5    1  0.1157963E-006  0.2000196E+02  0.7818608E-02  0.1745289E+00
          4   -1    0    0  501    0  0.00000000000E+00  0.00000000000E+00  0.44036755858E+01  0.46269599809E+01  0.14200000000E+01 0. -1.
         -4   -1    0    0    0  501 -0.00000000000E+00 -0.00000000000E+00 -0.21904334384E+02  0.21950313547E+02  0.14200000000E+01 0.  1.
       1023    2    1    2    0    0  0.00000000000E+00  0.00000000000E+00 -0.17500658798E+02  0.26577273528E+02  0.20001960149E+02 0.  0.
        -11    1    3    3    0    0 -0.53467244122E+01  0.84512259750E+01 -0.86248378173E+01  0.13206002804E+02  0.51100000000E-03 0. -1.
         11    1    3    3    0    0  0.53467244122E+01 -0.84512259750E+01 -0.88758209807E+01  0.13371270724E+02  0.51100000000E-03 0.  1.
<mgrwt>
<rscale>  0 0.20001960E+02</rscale>
<asrwt>0</asrwt>
<pdfrwt beam="1">  1        4 0.69820114E-03 0.20001960E+02</pdfrwt>
<pdfrwt beam="2">  1       -4 0.33906101E-02 0.20001960E+02</pdfrwt>
<totfact> 0.12635996E+06</totfact>
</mgrwt>
</event>
<event>
 5    1  0.1154861E-006  0.2000104E+02  0.7818608E-02  0.1745307E+00
         -4   -1    0    0    0  501 -0.00000000000E+00  0.00000000000E+00  0.94864202548E+02  0.94874829777E+02  0.14200000000E+01 0. -1.
          4   -1    0    0  501    0  0.00000000000E+00 -0.00000000000E+00 -0.56046555107E+00  0.15266046096E+01  0.14200000000E+01 0.  1.
       1023    2    1    2    0    0  0.00000000000E+00  0.00000000000E+00  0.94303736997E+02  0.96401434386E+02  0.20001043474E+02 0.  0.
        -11    1    3    3    0    0 -0.97177261227E+01  0.23609208541E+01  0.46921398625E+02  0.47975262349E+02  0.51100000000E-03 0.  1.
         11    1    3    3    0    0  0.97177261227E+01 -0.23609208541E+01  0.47382338373E+02  0.48426172038E+02  0.51100000000E-03 0. -1.
<mgrwt>
<rscale>  0 0.20001043E+02</rscale>
<asrwt>0</asrwt>
<pdfrwt beam="2">  1        4 0.16136131E-03 0.20001043E+02</pdfrwt>
<pdfrwt beam="1">  1       -4 0.14669631E-01 0.20001043E+02</pdfrwt>
<totfact> 0.99039086E+05</totfact>
</mgrwt>
</event>
<event>
 5    1  0.1154861E-006  0.2000097E+02  0.7818608E-02  0.1745309E+00
          4   -1    0    0  501    0  0.00000000000E+00  0.00000000000E+00  0.63120025170E+00  0.15539671032E+01  0.14200000000E+01 0.  1.
         -4   -1    0    0    0  501 -0.00000000000E+00 -0.00000000000E+00 -0.90604401953E+02  0.90615528764E+02  0.14200000000E+01 0. -1.
       1023    2    1    2    0    0  0.00000000000E+00  0.00000000000E+00 -0.89973201701E+02  0.92169495867E+02  0.20000973579E+02 0.  0.
        -11    1    3    3    0    0 -0.93593582223E+01  0.35228973383E+01 -0.45155528059E+02  0.46249649799E+02  0.51100000000E-03 0. -1.
         11    1    3    3    0    0  0.93593582223E+01 -0.35228973383E+01 -0.44817673642E+02  0.45919846068E+02  0.51100000000E-03 0.  1.
<mgrwt>
<rscale>  0 0.20000974E+02</rscale>
<asrwt>0</asrwt>
<pdfrwt beam="1">  1        4 0.16894578E-03 0.20000974E+02</pdfrwt>
<pdfrwt beam="2">  1       -4 0.14010971E-01 0.20000974E+02</pdfrwt>
<totfact> 0.10029144E+06</totfact>
</mgrwt>
</event>
<event>
 5    1  0.1154861E-006  0.2000025E+02  0.7818608E-02  0.1745323E+00
          4   -1    0    0  501    0  0.00000000000E+00  0.00000000000E+00  0.31756935187E+00  0.14550774183E+01  0.14200000000E+01 0. -1.
         -4   -1    0    0    0  501 -0.00000000000E+00 -0.00000000000E+00 -0.11168356762E+03  0.11169259455E+03  0.14200000000E+01 0.  1.
       1023    2    1    2    0    0  0.00000000000E+00  0.00000000000E+00 -0.11136599827E+03  0.11314767197E+03  0.20000252514E+02 0.  0.
        -11    1    3    3    0    0  0.80361463763E+01  0.59515794396E+01 -0.55907765018E+02  0.56795062603E+02  0.51100000000E-03 0. -1.
         11    1    3    3    0    0 -0.80361463763E+01 -0.59515794396E+01 -0.55458233254E+02  0.56352609366E+02  0.51100000000E-03 0.  1.
<mgrwt>
<rscale>  0 0.20000253E+02</rscale>
<asrwt>0</asrwt>
<pdfrwt beam="1">  1        4 0.13705191E-03 0.20000253E+02</pdfrwt>
<pdfrwt beam="2">  1       -4 0.17270271E-01 0.20000253E+02</pdfrwt>
<totfact> 0.94416865E+05</totfact>
</mgrwt>
</event>
<event>
 5    1  0.1203264E-006  0.2000123E+02  0.7818608E-02  0.1745304E+00
         -4   -1    0    0    0  501 -0.00000000000E+00  0.00000000000E+00  0.20987478380E+02  0.21035461695E+02  0.14200000000E+01 0.  1.
          4   -1    0    0  501    0  0.00000000000E+00 -0.00000000000E+00 -0.46047960467E+01  0.48187702406E+01  0.14200000000E+01 0. -1.
       1023    2    1    2    0    0  0.00000000000E+00  0.00000000000E+00  0.16382682333E+02  0.25854231936E+02  0.20001225677E+02 0.  0.
        -11    1    3    3    0    0 -0.59370454491E+01 -0.80473041573E+01  0.81032520996E+01  0.12871297826E+02  0.51100000000E-03 0.  1.
         11    1    3    3    0    0  0.59370454491E+01  0.80473041573E+01  0.82794302332E+01  0.12982934110E+02  0.51100000000E-03 0. -1.
<mgrwt>
<rscale>  0 0.20001226E+02</rscale>
<asrwt>0</asrwt>
<pdfrwt beam="2">  1        4 0.72858073E-03 0.20001226E+02</pdfrwt>
<pdfrwt beam="1">  1       -4 0.32489934E-02 0.20001226E+02</pdfrwt>
<totfact> 0.12676619E+06</totfact>
</mgrwt>
</event>
<event>
 5    1  0.1154861E-006  0.2000344E+02  0.7818608E-02  0.1745260E+00
         -4   -1    0    0    0  501 -0.00000000000E+00  0.00000000000E+00  0.50101710601E+02  0.50121829626E+02  0.14200000000E+01 0.  1.
          4   -1    0    0  501    0  0.00000000000E+00 -0.00000000000E+00 -0.17209509171E+01  0.22311593531E+01  0.14200000000E+01 0. -1.
       1023    2    1    2    0    0  0.00000000000E+00  0.00000000000E+00  0.48380759683E+02  0.52352988980E+02  0.20003438393E+02 0.  0.
        -11    1    3    3    0    0 -0.32463555502E+01  0.94597157514E+01  0.24443317920E+02  0.26410241151E+02  0.51100000000E-03 0. -1.
         11    1    3    3    0    0  0.32463555502E+01 -0.94597157514E+01  0.23937441764E+02  0.25942747829E+02  0.51100000000E-03 0.  1.
<mgrwt>
<rscale>  0 0.20003438E+02</rscale>
<asrwt>0</asrwt>
<pdfrwt beam="2">  1        4 0.30555610E-03 0.20003438E+02</pdfrwt>
<pdfrwt beam="1">  1       -4 0.77487498E-02 0.20003438E+02</pdfrwt>
<totfact> 0.11418424E+06</totfact>
</mgrwt>
</event>
<event>
 5    1  0.1170554E-006  0.2000110E+02  0.7818608E-02  0.1745306E+00
          4   -1    0    0  501    0  0.00000000000E+00  0.00000000000E+00  0.39704550275E+02  0.39729934716E+02  0.14200000000E+01 0.  1.
         -4   -1    0    0    0  501 -0.00000000000E+00 -0.00000000000E+00 -0.22903896347E+01  0.26948626456E+01  0.14200000000E+01 0. -1.
       1023    2    1    2    0    0  0.00000000000E+00  0.00000000000E+00  0.37414160641E+02  0.42424797362E+02  0.20001100339E+02 0.  0.
        -11    1    3    3    0    0 -0.82622477438E+01 -0.56335117221E+01  0.18496978548E+02  0.21027111256E+02  0.51100000000E-03 0.  1.
         11    1    3    3    0    0  0.82622477438E+01  0.56335117221E+01  0.18917182093E+02  0.21397686106E+02  0.51100000000E-03 0. -1.
<mgrwt>
<rscale>  0 0.20001100E+02</rscale>
<asrwt>0</asrwt>
<pdfrwt beam="1">  1        4 0.61414577E-02 0.20001100E+02</pdfrwt>
<pdfrwt beam="2">  1       -4 0.38543363E-03 0.20001100E+02</pdfrwt>
<totfact> 0.11849897E+06</totfact>
</mgrwt>
</event>
<event>
 5    1  0.1154868E-006  0.2000173E+02  0.7818608E-02  0.1745294E+00
          4   -1    0    0  501    0  0.00000000000E+00  0.00000000000E+00  0.25860427082E+01  0.29502570886E+01  0.14200000000E+01 0. -1.
         -4   -1    0    0    0  501 -0.00000000000E+00 -0.00000000000E+00 -0.35752224830E+02  0.35780413361E+02  0.14200000000E+01 0.  1.
       1023    2    1    2    0    0  0.00000000000E+00  0.00000000000E+00 -0.33166182122E+02  0.38730670450E+02  0.20001729849E+02 0.  0.
        -11    1    3    3    0    0 -0.98565238701E+01 -0.16929612586E+01 -0.16562025326E+02  0.19347296033E+02  0.51100000000E-03 0. -1.
         11    1    3    3    0    0  0.98565238701E+01  0.16929612586E+01 -0.16604156795E+02  0.19383374416E+02  0.51100000000E-03 0.  1.
<mgrwt>
<rscale>  0 0.20001730E+02</rscale>
<asrwt>0</asrwt>
<pdfrwt beam="1">  1        4 0.42803759E-03 0.20001730E+02</pdfrwt>
<pdfrwt beam="2">  1       -4 0.55305268E-02 0.20001730E+02</pdfrwt>
<totfact> 0.12019999E+06</totfact>
</mgrwt>
</event>
<event>
 5    1  0.1226661E-006  0.2000105E+02  0.7818608E-02  0.1745307E+00
          4   -1    0    0  501    0  0.00000000000E+00  0.00000000000E+00  0.75970658967E+01  0.77286357295E+01  0.14200000000E+01 0. -1.
         -4   -1    0    0    0  501 -0.00000000000E+00 -0.00000000000E+00 -0.12880414502E+02  0.12958451981E+02  0.14200000000E+01 0.  1.
       1023    2    1    2    0    0  0.00000000000E+00  0.00000000000E+00 -0.52833486057E+01  0.20687087711E+02  0.20001045609E+02 0.  0.
        -11    1    3    3    0    0  0.56440456505E+01 -0.82554076053E+01 -0.25809222886E+01  0.10328028183E+02  0.51100000000E-03 0. -1.
         11    1    3    3    0    0 -0.56440456505E+01  0.82554076053E+01 -0.27024263171E+01  0.10359059528E+02  0.51100000000E-03 0.  1.
<mgrwt>
<rscale>  0 0.20001046E+02</rscale>
<asrwt>0</asrwt>
<pdfrwt beam="1">  1        4 0.11849030E-02 0.20001046E+02</pdfrwt>
<pdfrwt beam="2">  1       -4 0.19977259E-02 0.20001046E+02</pdfrwt>
<totfact> 0.12971879E+06</totfact>
</mgrwt>
</event>
<event>
 5    1  0.1154861E-006  0.2000038E+02  0.7818608E-02  0.1745321E+00
          4   -1    0    0  501    0  0.00000000000E+00  0.00000000000E+00  0.64564973562E+01  0.66108061619E+01  0.14200000000E+01 0. -1.
         -4   -1    0    0    0  501 -0.00000000000E+00 -0.00000000000E+00 -0.15117985699E+02  0.15184528033E+02  0.14200000000E+01 0.  1.
       1023    2    1    2    0    0  0.00000000000E+00  0.00000000000E+00 -0.86614883427E+01  0.21795334195E+02  0.20000380306E+02 0.  0.
        -11    1    3    3    0    0 -0.89175276257E+00 -0.99603261787E+01 -0.43546753378E+01  0.10907177368E+02  0.51100000000E-03 0. -1.
         11    1    3    3    0    0  0.89175276257E+00  0.99603261787E+01 -0.43068130049E+01  0.10888156827E+02  0.51100000000E-03 0.  1.
<mgrwt>
<rscale>  0 0.20000380E+02</rscale>
<asrwt>0</asrwt>
<pdfrwt beam="1">  1        4 0.10102958E-02 0.20000380E+02</pdfrwt>
<pdfrwt beam="2">  1       -4 0.23428325E-02 0.20000380E+02</pdfrwt>
<totfact> 0.12907623E+06</totfact>
</mgrwt>
</event>
<event>
 5    1  0.1154861E-006  0.2000129E+02  0.7818608E-02  0.1745302E+00
          4   -1    0    0  501    0  0.00000000000E+00  0.00000000000E+00  0.82012960624E+02  0.82025252882E+02  0.14200000000E+01 0. -1.
         -4   -1    0    0    0  501 -0.00000000000E+00 -0.00000000000E+00 -0.78943590087E+00  0.16246873673E+01  0.14200000000E+01 0.  1.
       1023    2    1    2    0    0  0.00000000000E+00  0.00000000000E+00  0.81223524724E+02  0.83649940250E+02  0.20001288339E+02 0.  0.
        -11    1    3    3    0    0  0.53032128258E+01  0.84784344951E+01  0.40906476851E+02  0.42111135895E+02  0.51100000000E-03 0. -1.
         11    1    3    3    0    0 -0.53032128258E+01 -0.84784344951E+01  0.40317047873E+02  0.41538804354E+02  0.51100000000E-03 0.  1.
<mgrwt>
<rscale>  0 0.20001288E+02</rscale>
<asrwt>0</asrwt>
<pdfrwt beam="1">  1        4 0.12682581E-01 0.20001288E+02</pdfrwt>
<pdfrwt beam="2">  1       -4 0.18664725E-03 0.20001288E+02</pdfrwt>
<totfact> 0.10292123E+06</totfact>
</mgrwt>
</event>
<event>
 5    1  0.1154861E-006  0.2000225E+02  0.7818608E-02  0.1745283E+00
          4   -1    0    0  501    0  0.00000000000E+00  0.00000000000E+00  0.60817482071E+02  0.60834057282E+02  0.14200000000E+01 0.  1.
         -4   -1    0    0    0  501 -0.00000000000E+00 -0.00000000000E+00 -0.13181101782E+01  0.19374763075E+01  0.14200000000E+01 0. -1.
       1023    2    1    2    0    0  0.00000000000E+00  0.00000000000E+00  0.59499371893E+02  0.62771533590E+02  0.20002254213E+02 0.  0.
        -11    1    3    3    0    0  0.21030184213E+01 -0.97766647884E+01  0.29344353434E+02  0.31001563502E+02  0.51100000000E-03 0. -1.
         11    1    3    3    0    0 -0.21030184213E+01  0.97766647884E+01  0.30155018459E+02  0.31769970088E+02  0.51100000000E-03 0.  1.
<mgrwt>
<rscale>  0 0.20002254E+02</rscale>
<asrwt>0</asrwt>
<pdfrwt beam="1">  1        4 0.94054534E-02 0.20002254E+02</pdfrwt>
<pdfrwt beam="2">  1       -4 0.25170477E-03 0.20002254E+02</pdfrwt>
<totfact> 0.11011219E+06</totfact>
</mgrwt>
</event>
<event>
 4    1  0.1154861E-006  0.2011837E+02  0.7818608E-02  0.1742984E+00
          4   -1    0    0  501    0  0.00000000000E+00  0.00000000000E+00  0.32083611259E+02  0.32115020029E+02  0.14200000000E+01 0.  1.
         -4   -1    0    0    0  501 -0.00000000000E+00 -0.00000000000E+00 -0.29593025744E+01  0.32823576476E+01  0.14200000000E+01 0. -1.
        -11    1    1    2    0    0  0.10017888095E+02 -0.88832629168E+00  0.14914228953E+02  0.17988369326E+02  0.51100000000E-03 0. -1.
         11    1    1    2    0    0 -0.10017888095E+02  0.88832629168E+00  0.14210079732E+02  0.17409008350E+02  0.51100000000E-03 0.  1.
<mgrwt>
<rscale>  0 0.20118374E+02</rscale>
<asrwt>0</asrwt>
<pdfrwt beam="1">  1        4 0.49632068E-02 0.20118374E+02</pdfrwt>
<pdfrwt beam="2">  1       -4 0.48254375E-03 0.20118374E+02</pdfrwt>
<totfact> 0.12037448E+06</totfact>
</mgrwt>
</event>
<event>
 4    1  0.1154861E-006  0.2004572E+02  0.7818608E-02  0.1744420E+00
          4   -1    0    0  501    0  0.00000000000E+00  0.00000000000E+00  0.41624079660E+02  0.41648294173E+02  0.14200000000E+01 0.  1.
         -4   -1    0    0    0  501 -0.00000000000E+00 -0.00000000000E+00 -0.21774180735E+01  0.25995287009E+01  0.14200000000E+01 0. -1.
        -11    1    1    2    0    0  0.91838553094E+01  0.40119122958E+01  0.19418742510E+02  0.21852372859E+02  0.51100000000E-03 0.  1.
         11    1    1    2    0    0 -0.91838553094E+01 -0.40119122958E+01  0.20027919076E+02  0.22395450015E+02  0.51100000000E-03 0. -1.
<mgrwt>
<rscale>  0 0.20045716E+02</rscale>
<asrwt>0</asrwt>
<pdfrwt beam="1">  1        4 0.64380370E-02 0.20045716E+02</pdfrwt>
<pdfrwt beam="2">  1       -4 0.36932011E-03 0.20045716E+02</pdfrwt>
<totfact> 0.11714995E+06</totfact>
</mgrwt>
</event>
<event>
 5    1  0.1198876E-006  0.2000110E+02  0.7818608E-02  0.1745306E+00
          4   -1    0    0  501    0  0.00000000000E+00  0.00000000000E+00  0.38015784290E+01  0.40581274687E+01  0.14200000000E+01 0.  1.
         -4   -1    0    0    0  501 -0.00000000000E+00 -0.00000000000E+00 -0.25171842082E+02  0.25211862958E+02  0.14200000000E+01 0. -1.
       1023    2    1    2    0    0  0.00000000000E+00  0.00000000000E+00 -0.21370263653E+02  0.29269990426E+02  0.20001104244E+02 0.  0.
        -11    1    3    3    0    0 -0.98400251669E+00  0.99519576099E+01 -0.10738325777E+02  0.14673832559E+02  0.51100000000E-03 0. -1.
         11    1    3    3    0    0  0.98400251669E+00 -0.99519576099E+01 -0.10631937876E+02  0.14596157867E+02  0.51100000000E-03 0.  1.
<mgrwt>
<rscale>  0 0.20001104E+02</rscale>
<asrwt>0</asrwt>
<pdfrwt beam="1">  1        4 0.60767131E-03 0.20001104E+02</pdfrwt>
<pdfrwt beam="2">  1       -4 0.38954041E-02 0.20001104E+02</pdfrwt>
<totfact> 0.12492644E+06</totfact>
</mgrwt>
</event>
<event>
 5    1  0.1154861E-006  0.2000036E+02  0.7818608E-02  0.1745321E+00
          4   -1    0    0  501    0  0.00000000000E+00  0.00000000000E+00  0.42844970137E+02  0.42868495029E+02  0.14200000000E+01 0. -1.
         -4   -1    0    0    0  501 -0.00000000000E+00 -0.00000000000E+00 -0.20916161384E+01  0.25280937622E+01  0.14200000000E+01 0.  1.
       1023    2    1    2    0    0  0.00000000000E+00  0.00000000000E+00  0.40753353998E+02  0.45396588791E+02  0.20000360290E+02 0.  0.
        -11    1    3    3    0    0 -0.25642084060E+01 -0.96656904825E+01  0.20255176130E+02  0.22589220827E+02  0.51100000000E-03 0.  1.
         11    1    3    3    0    0  0.25642084060E+01  0.96656904825E+01  0.20498177869E+02  0.22807367964E+02  0.51100000000E-03 0. -1.
<mgrwt>
<rscale>  0 0.20000360E+02</rscale>
<asrwt>0</asrwt>
<pdfrwt beam="1">  1        4 0.66269186E-02 0.20000360E+02</pdfrwt>
<pdfrwt beam="2">  1       -4 0.35717191E-03 0.20000360E+02</pdfrwt>
<totfact> 0.11717880E+06</totfact>
</mgrwt>
</event>
<event>
 5    1  0.1154861E-006  0.2000072E+02  0.7818608E-02  0.1745314E+00
          4   -1    0    0  501    0  0.00000000000E+00  0.00000000000E+00  0.12562040150E+01  0.18959030902E+01  0.14200000000E+01 0. -1.
         -4   -1    0    0    0  501 -0.00000000000E+00 -0.00000000000E+00 -0.62804857771E+02  0.62820908618E+02  0.14200000000E+01 0.  1.
       1023    2    1    2    0    0  0.00000000000E+00  0.00000000000E+00 -0.61548653756E+02  0.64716811708E+02  0.20000723450E+02 0.  0.
        -11    1    3    3    0    0  0.76126458272E+01  0.64848489715E+01 -0.30903419696E+02  0.32481179040E+02  0.51100000000E-03 0. -1.
         11    1    3    3    0    0 -0.76126458272E+01 -0.64848489715E+01 -0.30645234060E+02  0.32235632668E+02  0.51100000000E-03 0.  1.
<mgrwt>
<rscale>  0 0.20000723E+02</rscale>
<asrwt>0</asrwt>
<pdfrwt beam="1">  1        4 0.24370451E-03 0.20000723E+02</pdfrwt>
<pdfrwt beam="2">  1       -4 0.97127262E-02 0.20000723E+02</pdfrwt>
<totfact> 0.10940601E+06</totfact>
</mgrwt>
</event>
<event>
 5    1  0.1154861E-006  0.2000078E+02  0.7818608E-02  0.1745313E+00
          4   -1    0    0  501    0  0.00000000000E+00  0.00000000000E+00  0.14604847320E+01  0.20370114512E+01  0.14200000000E+01 0.  1.
         -4   -1    0    0    0  501 -0.00000000000E+00 -0.00000000000E+00 -0.56601299443E+02  0.56619108953E+02  0.14200000000E+01 0.  1.
       1023    2    1    2    0    0  0.00000000000E+00  0.00000000000E+00 -0.55140814711E+02  0.58656120405E+02  0.20000775332E+02 0.  0.
        -11    1    3    3    0    0  0.27881536250E+01  0.96035622996E+01 -0.27352050100E+02  0.29122789262E+02  0.51100000000E-03 0.  1.
         11    1    3    3    0    0 -0.27881536250E+01 -0.96035622996E+01 -0.27788764612E+02  0.29533331143E+02  0.51100000000E-03 0. -1.
<mgrwt>
<rscale>  0 0.20000775E+02</rscale>
<asrwt>0</asrwt>
<pdfrwt beam="1">  1        4 0.27040817E-03 0.20000775E+02</pdfrwt>
<pdfrwt beam="2">  1       -4 0.87536090E-02 0.20000775E+02</pdfrwt>
<totfact> 0.11169835E+06</totfact>
</mgrwt>
</event>
<event>
 4    1  0.1631293E-006  0.2019408E+02  0.7818608E-02  0.1741496E+00
         -4   -1    0    0    0  501 -0.00000000000E+00  0.00000000000E+00  0.37768484573E+01  0.40349701696E+01  0.14200000000E+01 0. -1.
          4   -1    0    0  501    0  0.00000000000E+00 -0.00000000000E+00 -0.25823268552E+02  0.25862281390E+02  0.14200000000E+01 0.  1.
        -11    1    1    2    0    0  0.48465626963E+01  0.87829750136E+01 -0.93219713944E+01  0.13694121768E+02  0.51100000000E-03 0.  1.
         11    1    1    2    0    0 -0.48465626963E+01 -0.87829750136E+01 -0.12724448700E+02  0.16203129791E+02  0.51100000000E-03 0. -1.
<mgrwt>
<rscale>  0 0.20194084E+02</rscale>
<asrwt>0</asrwt>
<pdfrwt beam="2">  1        4 0.39956669E-02 0.20194084E+02</pdfrwt>
<pdfrwt beam="1">  1       -4 0.60391013E-03 0.20194084E+02</pdfrwt>
<totfact> 0.12218643E+06</totfact>
</mgrwt>
</event>
<event>
 5    1  0.1154861E-006  0.2000061E+02  0.7818608E-02  0.1745316E+00
         -4   -1    0    0    0  501 -0.00000000000E+00  0.00000000000E+00  0.47741421851E+01  0.49808466754E+01  0.14200000000E+01 0. -1.
          4   -1    0    0  501    0  0.00000000000E+00 -0.00000000000E+00 -0.20271515292E+02  0.20321189243E+02  0.14200000000E+01 0.  1.
       1023    2    1    2    0    0  0.00000000000E+00  0.00000000000E+00 -0.15497373107E+02  0.25302035918E+02  0.20000611200E+02 0.  0.
        -11    1    3    3    0    0 -0.65124447487E+01 -0.75890826010E+01 -0.77477872988E+01  0.12650467170E+02  0.51100000000E-03 0. -1.
         11    1    3    3    0    0  0.65124447487E+01  0.75890826010E+01 -0.77495858084E+01  0.12651568748E+02  0.51100000000E-03 0.  1.
<mgrwt>
<rscale>  0 0.20000611E+02</rscale>
<asrwt>0</asrwt>
<pdfrwt beam="2">  1        4 0.31384160E-02 0.20000611E+02</pdfrwt>
<pdfrwt beam="1">  1       -4 0.75420484E-03 0.20000611E+02</pdfrwt>
<totfact> 0.12707983E+06</totfact>
</mgrwt>
</event>
<event>
 5    1  0.1173074E-006  0.2000150E+02  0.7818608E-02  0.1745298E+00
         -4   -1    0    0    0  501 -0.00000000000E+00  0.00000000000E+00  0.68760284820E+01  0.70211229647E+01  0.14200000000E+01 0.  1.
          4   -1    0    0  501    0  0.00000000000E+00 -0.00000000000E+00 -0.14212754426E+02  0.14283514566E+02  0.14200000000E+01 0. -1.
       1023    2    1    2    0    0  0.00000000000E+00  0.00000000000E+00 -0.73367259437E+01  0.21304637531E+02  0.20001500763E+02 0.  0.
        -11    1    3    3    0    0  0.48469680858E+01 -0.87472716633E+01 -0.37584092826E+01  0.10683328216E+02  0.51100000000E-03 0. -1.
         11    1    3    3    0    0 -0.48469680858E+01  0.87472716633E+01 -0.35783166611E+01  0.10621309315E+02  0.51100000000E-03 0.  1.
<mgrwt>
<rscale>  0 0.20001501E+02</rscale>
<asrwt>0</asrwt>
<pdfrwt beam="2">  1        4 0.22031818E-02 0.20001501E+02</pdfrwt>
<pdfrwt beam="1">  1       -4 0.10744547E-02 0.20001501E+02</pdfrwt>
<totfact> 0.12934836E+06</totfact>
</mgrwt>
</event>
<event>
 5    1  0.1154861E-006  0.2000168E+02  0.7818608E-02  0.1745295E+00
         -4   -1    0    0    0  501 -0.00000000000E+00  0.00000000000E+00  0.77457889439E+02  0.77470904450E+02  0.14200000000E+01 0. -1.
          4   -1    0    0  501    0  0.00000000000E+00 -0.00000000000E+00 -0.88366573848E+00  0.16725026569E+01  0.14200000000E+01 0.  1.
       1023    2    1    2    0    0  0.00000000000E+00  0.00000000000E+00  0.76574223701E+02  0.79143407107E+02  0.20001678759E+02 0.  0.
        -11    1    3    3    0    0 -0.35688957227E+01  0.93423617925E+01  0.38314381906E+02  0.39598088358E+02  0.51100000000E-03 0. -1.
         11    1    3    3    0    0  0.35688957227E+01 -0.93423617925E+01  0.38259841795E+02  0.39545318749E+02  0.51100000000E-03 0.  1.
<mgrwt>
<rscale>  0 0.20001679E+02</rscale>
<asrwt>0</asrwt>
<pdfrwt beam="2">  1        4 0.19762943E-03 0.20001679E+02</pdfrwt>
<pdfrwt beam="1">  1       -4 0.11978283E-01 0.20001679E+02</pdfrwt>
<totfact> 0.10437493E+06</totfact>
</mgrwt>
</event>
<event>
 5    1  0.1154861E-006  0.2000176E+02  0.7818608E-02  0.1745293E+00
         -4   -1    0    0    0  501 -0.00000000000E+00  0.00000000000E+00  0.45067272509E+02  0.45089637961E+02  0.14200000000E+01 0. -1.
          4   -1    0    0  501    0  0.00000000000E+00 -0.00000000000E+00 -0.19668025021E+01  0.24258425510E+01  0.14200000000E+01 0.  1.
       1023    2    1    2    0    0  0.00000000000E+00  0.00000000000E+00  0.43100470007E+02  0.47515480512E+02  0.20001759258E+02 0.  0.
        -11    1    3    3    0    0  0.16080815045E+01 -0.98706507199E+01  0.21654363246E+02  0.23852193183E+02  0.51100000000E-03 0. -1.
         11    1    3    3    0    0 -0.16080815045E+01  0.98706507199E+01  0.21446106761E+02  0.23663287329E+02  0.51100000000E-03 0.  1.
<mgrwt>
<rscale>  0 0.20001759E+02</rscale>
<asrwt>0</asrwt>
<pdfrwt beam="2">  1        4 0.33961618E-03 0.20001759E+02</pdfrwt>
<pdfrwt beam="1">  1       -4 0.69704580E-02 0.20001759E+02</pdfrwt>
<totfact> 0.11623929E+06</totfact>
</mgrwt>
</event>
<event>
 5    1  0.1154861E-006  0.2000029E+02  0.7818608E-02  0.1745322E+00
          4   -1    0    0  501    0  0.00000000000E+00  0.00000000000E+00  0.29110566376E+01  0.32389274070E+01  0.14200000000E+01 0. -1.
         -4   -1    0    0    0  501 -0.00000000000E+00 -0.00000000000E+00 -0.32176984556E+02  0.32208302270E+02  0.14200000000E+01 0.  1.
       1023    2    1    2    0    0  0.00000000000E+00  0.00000000000E+00 -0.29265927919E+02  0.35447229677E+02  0.20000288869E+02 0.  0.
        -11    1    3    3    0    0 -0.99059224439E+01  0.13691705943E+01 -0.14687902697E+02  0.17768973338E+02  0.51100000000E-03 0.  1.
         11    1    3    3    0    0  0.99059224439E+01 -0.13691705943E+01 -0.14578025222E+02  0.17678256340E+02  0.51100000000E-03 0. -1.
<mgrwt>
<rscale>  0 0.20000289E+02</rscale>
<asrwt>0</asrwt>
<pdfrwt beam="1">  1        4 0.47548477E-03 0.20000289E+02</pdfrwt>
<pdfrwt beam="2">  1       -4 0.49779350E-02 0.20000289E+02</pdfrwt>
<totfact> 0.12179656E+06</totfact>
</mgrwt>
</event>
<event>
 5    1  0.1154861E-006  0.2000263E+02  0.7818608E-02  0.1745276E+00
          4   -1    0    0  501    0  0.00000000000E+00  0.00000000000E+00  0.68920534067E+01  0.70368174739E+01  0.14200000000E+01 0.  1.
         -4   -1    0    0    0  501 -0.00000000000E+00 -0.00000000000E+00 -0.14181852935E+02  0.14252766492E+02  0.14200000000E+01 0. -1.
       1023    2    1    2    0    0  0.00000000000E+00  0.00000000000E+00 -0.72897995285E+01  0.21289583966E+02  0.20002630034E+02 0.  0.
        -11    1    3    3    0    0 -0.43808979570E+00  0.99916628647E+01 -0.36103728437E+01  0.10632969566E+02  0.51100000000E-03 0.  1.
         11    1    3    3    0    0  0.43808979570E+00 -0.99916628647E+01 -0.36794266849E+01  0.10656614400E+02  0.51100000000E-03 0. -1.
<mgrwt>
<rscale>  0 0.20002630E+02</rscale>
<asrwt>0</asrwt>
<pdfrwt beam="1">  1        4 0.10769065E-02 0.20002630E+02</pdfrwt>
<pdfrwt beam="2">  1       -4 0.21984141E-02 0.20002630E+02</pdfrwt>
<totfact> 0.12934230E+06</totfact>
</mgrwt>
</event>
<event>
 5    1  0.1154861E-006  0.2000517E+02  0.7818608E-02  0.1745225E+00
         -4   -1    0    0    0  501 -0.00000000000E+00  0.00000000000E+00  0.66839009656E+02  0.66854091960E+02  0.14200000000E+01 0.  1.
          4   -1    0    0  501    0  0.00000000000E+00 -0.00000000000E+00 -0.11413793365E+01  0.18218525708E+01  0.14200000000E+01 0. -1.
       1023    2    1    2    0    0  0.00000000000E+00  0.00000000000E+00  0.65697630320E+02  0.68675944531E+02  0.20005167523E+02 0.  0.
        -11    1    3    3    0    0 -0.98018759472E+01 -0.19917693496E+01  0.33151309211E+02  0.34627347861E+02  0.51100000000E-03 0. -1.
         11    1    3    3    0    0  0.98018759472E+01  0.19917693496E+01  0.32546321109E+02  0.34048596670E+02  0.51100000000E-03 0.  1.
<mgrwt>
<rscale>  0 0.20005168E+02</rscale>
<asrwt>0</asrwt>
<pdfrwt beam="2">  1        4 0.22910105E-03 0.20005168E+02</pdfrwt>
<pdfrwt beam="1">  1       -4 0.10336431E-01 0.20005168E+02</pdfrwt>
<totfact> 0.10792195E+06</totfact>
</mgrwt>
</event>
<event>
 5    1  0.1154861E-006  0.2000384E+02  0.7818608E-02  0.1745252E+00
          4   -1    0    0  501    0  0.00000000000E+00  0.00000000000E+00  0.16933101089E+02  0.16992536965E+02  0.14200000000E+01 0. -1.
         -4   -1    0    0    0  501 -0.00000000000E+00 -0.00000000000E+00 -0.57515759555E+01  0.59242742992E+01  0.14200000000E+01 0.  1.
       1023    2    1    2    0    0  0.00000000000E+00  0.00000000000E+00  0.11181525134E+02  0.22916811264E+02  0.20003842986E+02 0.  0.
        -11    1    3    3    0    0  0.40359471631E+01  0.91511489246E+01  0.56797761940E+01  0.11501836984E+02  0.51100000000E-03 0.  1.
         11    1    3    3    0    0 -0.40359471631E+01 -0.91511489246E+01  0.55017489397E+01  0.11414974279E+02  0.51100000000E-03 0. -1.
<mgrwt>
<rscale>  0 0.20003843E+02</rscale>
<asrwt>0</asrwt>
<pdfrwt beam="1">  1        4 0.26229489E-02 0.20003843E+02</pdfrwt>
<pdfrwt beam="2">  1       -4 0.90271432E-03 0.20003843E+02</pdfrwt>
<totfact> 0.12838311E+06</totfact>
</mgrwt>
</event>
<event>
 5    1  0.1154861E-006  0.2000168E+02  0.7818608E-02  0.1745295E+00
          4   -1    0    0  501    0  0.00000000000E+00  0.00000000000E+00  0.10533394045E+03  0.10534351148E+03  0.14200000000E+01 0.  1.
         -4   -1    0    0    0  501 -0.00000000000E+00 -0.00000000000E+00 -0.40353928203E+00  0.14762262537E+01  0.14200000000E+01 0. -1.
       1023    2    1    2    0    0  0.00000000000E+00  0.00000000000E+00  0.10493040117E+03  0.10681973773E+03  0.20001681930E+02 0.  0.
        -11    1    3    3    0    0 -0.17049750872E+01 -0.98542773907E+01  0.52762395773E+02  0.53701807520E+02  0.51100000000E-03 0. -1.
         11    1    3    3    0    0  0.17049750872E+01  0.98542773907E+01  0.52168005397E+02  0.53117930215E+02  0.51100000000E-03 0.  1.
<mgrwt>
<rscale>  0 0.20001682E+02</rscale>
<asrwt>0</asrwt>
<pdfrwt beam="1">  1        4 0.16288460E-01 0.20001682E+02</pdfrwt>
<pdfrwt beam="2">  1       -4 0.14533369E-03 0.20001682E+02</pdfrwt>
<totfact> 0.96095987E+05</totfact>
</mgrwt>
</event>
<event>
 5    1  0.1211109E-006  0.2000068E+02  0.7818608E-02  0.1745314E+00
         -4   -1    0    0    0  501 -0.00000000000E+00  0.00000000000E+00  0.10505839459E+02  0.10601370796E+02  0.14200000000E+01 0. -1.
          4   -1    0    0  501    0  0.00000000000E+00 -0.00000000000E+00 -0.93265679104E+01  0.94340483880E+01  0.14200000000E+01 0.  1.
       1023    2    1    2    0    0  0.00000000000E+00  0.00000000000E+00  0.11792715489E+01  0.20035419183E+02  0.20000683500E+02 0.  0.
        -11    1    3    3    0    0 -0.38749450212E+01  0.92189875738E+01  0.54592452398E+00  0.10015136776E+02  0.51100000000E-03 0.  1.
         11    1    3    3    0    0  0.38749450212E+01 -0.92189875738E+01  0.63334702489E+00  0.10020282407E+02  0.51100000000E-03 0. -1.
<mgrwt>
<rscale>  0 0.20000684E+02</rscale>
<asrwt>0</asrwt>
<pdfrwt beam="2">  1        4 0.14504729E-02 0.20000684E+02</pdfrwt>
<pdfrwt beam="1">  1       -4 0.16318993E-02 0.20000684E+02</pdfrwt>
<totfact> 0.13011035E+06</totfact>
</mgrwt>
</event>
<event>
 5    1  0.1154861E-006  0.2000412E+02  0.7818608E-02  0.1745246E+00
         -4   -1    0    0    0  501 -0.00000000000E+00  0.00000000000E+00  0.76440652004E+02  0.76453840184E+02  0.14200000000E+01 0. -1.
          4   -1    0    0  501    0  0.00000000000E+00 -0.00000000000E+00 -0.90626485329E+00  0.16845521614E+01  0.14200000000E+01 0.  1.
       1023    2    1    2    0    0  0.00000000000E+00  0.00000000000E+00  0.75534387151E+02  0.78138392345E+02  0.20004117476E+02 0.  0.
        -11    1    3    3    0    0 -0.78219768565E+01 -0.62319642337E+01  0.38326172005E+02  0.39609546336E+02  0.51100000000E-03 0. -1.
         11    1    3    3    0    0  0.78219768565E+01  0.62319642337E+01  0.37208215146E+02  0.38528846009E+02  0.51100000000E-03 0.  1.
<mgrwt>
<rscale>  0 0.20004117E+02</rscale>
<asrwt>0</asrwt>
<pdfrwt beam="2">  1        4 0.20030807E-03 0.20004117E+02</pdfrwt>
<pdfrwt beam="1">  1       -4 0.11820984E-01 0.20004117E+02</pdfrwt>
<totfact> 0.10468117E+06</totfact>
</mgrwt>
</event>
<event>
 5    1  0.1154861E-006  0.2000006E+02  0.7818608E-02  0.1745327E+00
         -4   -1    0    0    0  501 -0.00000000000E+00  0.00000000000E+00  0.47970329753E+01  0.50027917572E+01  0.14200000000E+01 0. -1.
          4   -1    0    0  501    0  0.00000000000E+00 -0.00000000000E+00 -0.20177421996E+02  0.20227327021E+02  0.14200000000E+01 0.  1.
       1023    2    1    2    0    0  0.00000000000E+00  0.00000000000E+00 -0.15380389021E+02  0.25230118778E+02  0.20000063178E+02 0.  0.
        -11    1    3    3    0    0 -0.22305759583E+01 -0.97480600575E+01 -0.76623404562E+01  0.12598079438E+02  0.51100000000E-03 0.  1.
         11    1    3    3    0    0  0.22305759583E+01  0.97480600575E+01 -0.77180485646E+01  0.12632039340E+02  0.51100000000E-03 0. -1.
<mgrwt>
<rscale>  0 0.20000063E+02</rscale>
<asrwt>0</asrwt>
<pdfrwt beam="2">  1        4 0.31238852E-02 0.20000063E+02</pdfrwt>
<pdfrwt beam="1">  1       -4 0.75767153E-03 0.20000063E+02</pdfrwt>
<totfact> 0.12712691E+06</totfact>
</mgrwt>
</event>
<event>
 5    1  0.1154861E-006  0.2000059E+02  0.7818608E-02  0.1745316E+00
          4   -1    0    0  501    0  0.00000000000E+00  0.00000000000E+00  0.60841271183E+01  0.62476397777E+01  0.14200000000E+01 0. -1.
         -4   -1    0    0    0  501 -0.00000000000E+00 -0.00000000000E+00 -0.16023900489E+02  0.16086695960E+02  0.14200000000E+01 0.  1.
       1023    2    1    2    0    0  0.00000000000E+00  0.00000000000E+00 -0.99397733711E+01  0.22334335737E+02  0.20000586445E+02 0.  0.
        -11    1    3    3    0    0  0.37775833029E+01  0.92592516125E+01 -0.50196793346E+01  0.11189327813E+02  0.51100000000E-03 0.  1.
         11    1    3    3    0    0 -0.37775833029E+01 -0.92592516125E+01 -0.49200940365E+01  0.11145007924E+02  0.51100000000E-03 0. -1.
<mgrwt>
<rscale>  0 0.20000586E+02</rscale>
<asrwt>0</asrwt>
<pdfrwt beam="1">  1        4 0.95342788E-03 0.20000586E+02</pdfrwt>
<pdfrwt beam="2">  1       -4 0.24826238E-02 0.20000586E+02</pdfrwt>
<totfact> 0.12876095E+06</totfact>
</mgrwt>
</event>
<event>
 4    1  0.1154861E-006  0.2017696E+02  0.7818608E-02  0.1741832E+00
          4   -1    0    0  501    0  0.00000000000E+00  0.00000000000E+00  0.39882772479E+01  0.42335275370E+01  0.14200000000E+01 0.  1.
         -4   -1    0    0    0  501 -0.00000000000E+00 -0.00000000000E+00 -0.24491496790E+02  0.24532627560E+02  0.14200000000E+01 0. -1.
        -11    1    1    2    0    0  0.61225876125E+00 -0.10067816032E+02 -0.99606978894E+01  0.14175728664E+02  0.51100000000E-03 0.  1.
         11    1    1    2    0    0 -0.61225876125E+00  0.10067816032E+02 -0.10542521653E+02  0.14590426433E+02  0.51100000000E-03 0. -1.
<mgrwt>
<rscale>  0 0.20176959E+02</rscale>
<asrwt>0</asrwt>
<pdfrwt beam="1">  1        4 0.63561044E-03 0.20176959E+02</pdfrwt>
<pdfrwt beam="2">  1       -4 0.37899518E-02 0.20176959E+02</pdfrwt>
<totfact> 0.12298198E+06</totfact>
</mgrwt>
</event>
<event>
 5    1  0.1212654E-006  0.2000093E+02  0.7818608E-02  0.1745310E+00
         -4   -1    0    0    0  501 -0.00000000000E+00  0.00000000000E+00  0.74987091388E+01  0.76319747607E+01  0.14200000000E+01 0. -1.
          4   -1    0    0  501    0  0.00000000000E+00 -0.00000000000E+00 -0.13047278711E+02  0.13124324049E+02  0.14200000000E+01 0.  1.
       1023    2    1    2    0    0  0.00000000000E+00  0.00000000000E+00 -0.55485695719E+01  0.20756298810E+02  0.20000932878E+02 0.  0.
        -11    1    3    3    0    0  0.88091425409E+01 -0.47330376678E+01 -0.26893978390E+01  0.10355457444E+02  0.51100000000E-03 0. -1.
         11    1    3    3    0    0 -0.88091425409E+01  0.47330376678E+01 -0.28591717328E+01  0.10400841366E+02  0.51100000000E-03 0.  1.
<mgrwt>
<rscale>  0 0.20000933E+02</rscale>
<asrwt>0</asrwt>
<pdfrwt beam="2">  1        4 0.20234514E-02 0.20000933E+02</pdfrwt>
<pdfrwt beam="1">  1       -4 0.11698253E-02 0.20000933E+02</pdfrwt>
<totfact> 0.12967933E+06</totfact>
</mgrwt>
</event>
<event>
 5    1  0.1154861E-006  0.2000032E+02  0.7818608E-02  0.1745322E+00
         -4   -1    0    0    0  501 -0.00000000000E+00  0.00000000000E+00  0.75328159850E+01  0.76654886775E+01  0.14200000000E+01 0.  1.
          4   -1    0    0  501    0  0.00000000000E+00 -0.00000000000E+00 -0.12988081628E+02  0.13065476049E+02  0.14200000000E+01 0. -1.
       1023    2    1    2    0    0  0.00000000000E+00  0.00000000000E+00 -0.54552656434E+01  0.20730964726E+02  0.20000324379E+02 0.  0.
        -11    1    3    3    0    0  0.13325012202E+00 -0.99992313478E+01 -0.26972285330E+01  0.10357481603E+02  0.51100000000E-03 0.  1.
         11    1    3    3    0    0 -0.13325012202E+00  0.99992313478E+01 -0.27580371104E+01  0.10373483123E+02  0.51100000000E-03 0. -1.
<mgrwt>
<rscale>  0 0.20000324E+02</rscale>
<asrwt>0</asrwt>
<pdfrwt beam="2">  1        4 0.20143254E-02 0.20000324E+02</pdfrwt>
<pdfrwt beam="1">  1       -4 0.11750538E-02 0.20000324E+02</pdfrwt>
<totfact> 0.12970240E+06</totfact>
</mgrwt>
</event>
<event>
 5    1  0.1154861E-006  0.2000047E+02  0.7818608E-02  0.1745319E+00
         -4   -1    0    0    0  501 -0.00000000000E+00  0.00000000000E+00  0.33071893930E+02  0.33102364993E+02  0.14200000000E+01 0. -1.
          4   -1    0    0  501    0  0.00000000000E+00 -0.00000000000E+00 -0.28234288843E+01  0.31604035604E+01  0.14200000000E+01 0.  1.
       1023    2    1    2    0    0  0.00000000000E+00  0.00000000000E+00  0.30248465046E+02  0.36262768554E+02  0.20000468633E+02 0.  0.
        -11    1    3    3    0    0 -0.92970686745E+01 -0.36835895655E+01  0.15159018207E+02  0.18160400637E+02  0.51100000000E-03 0.  1.
         11    1    3    3    0    0  0.92970686745E+01  0.36835895655E+01  0.15089446839E+02  0.18102367917E+02  0.51100000000E-03 0. -1.
<mgrwt>
<rscale>  0 0.20000469E+02</rscale>
<asrwt>0</asrwt>
<pdfrwt beam="2">  1        4 0.46263872E-03 0.20000469E+02</pdfrwt>
<pdfrwt beam="1">  1       -4 0.51162489E-02 0.20000469E+02</pdfrwt>
<totfact> 0.12139658E+06</totfact>
</mgrwt>
</event>
<event>
 5    1  0.1154861E-006  0.2000042E+02  0.7818608E-02  0.1745320E+00
         -4   -1    0    0    0  501 -0.00000000000E+00  0.00000000000E+00  0.14295659821E+02  0.14366011615E+02  0.14200000000E+01 0.  1.
          4   -1    0    0  501    0  0.00000000000E+00 -0.00000000000E+00 -0.68347480635E+01  0.69807006161E+01  0.14200000000E+01 0. -1.
       1023    2    1    2    0    0  0.00000000000E+00  0.00000000000E+00  0.74609117573E+01  0.21346712231E+02  0.20000422966E+02 0.  0.
        -11    1    3    3    0    0  0.77624448822E+01 -0.63046430433E+01  0.37437433621E+01  0.10678000238E+02  0.51100000000E-03 0.  1.
         11    1    3    3    0    0 -0.77624448822E+01  0.63046430433E+01  0.37171683951E+01  0.10668711993E+02  0.51100000000E-03 0. -1.
<mgrwt>
<rscale>  0 0.20000423E+02</rscale>
<asrwt>0</asrwt>
<pdfrwt beam="2">  1        4 0.10681385E-02 0.20000423E+02</pdfrwt>
<pdfrwt beam="1">  1       -4 0.22159711E-02 0.20000423E+02</pdfrwt>
<totfact> 0.12933789E+06</totfact>
</mgrwt>
</event>
<event>
 5    1  0.1198280E-006  0.2000109E+02  0.7818608E-02  0.1745306E+00
          4   -1    0    0  501    0  0.00000000000E+00  0.00000000000E+00  0.87018118486E+01  0.88169115595E+01  0.14200000000E+01 0.  1.
         -4   -1    0    0    0  501 -0.00000000000E+00 -0.00000000000E+00 -0.11257612218E+02  0.11346815978E+02  0.14200000000E+01 0. -1.
       1023    2    1    2    0    0  0.00000000000E+00  0.00000000000E+00 -0.25558003691E+01  0.20163727538E+02  0.20001094787E+02 0.  0.
        -11    1    3    3    0    0  0.27571837160E+01 -0.96129509610E+01 -0.12701116138E+01  0.10080876549E+02  0.51100000000E-03 0. -1.
         11    1    3    3    0    0 -0.27571837160E+01  0.96129509610E+01 -0.12856887552E+01  0.10082850989E+02  0.51100000000E-03 0.  1.
<mgrwt>
<rscale>  0 0.20001095E+02</rscale>
<asrwt>0</asrwt>
<pdfrwt beam="1">  1        4 0.13544559E-02 0.20001095E+02</pdfrwt>
<pdfrwt beam="2">  1       -4 0.17476560E-02 0.20001095E+02</pdfrwt>
<totfact> 0.13002855E+06</totfact>
</mgrwt>
</event>
<event>
 5    1  0.1154861E-006  0.2000038E+02  0.7818608E-02  0.1745320E+00
         -4   -1    0    0    0  501 -0.00000000000E+00  0.00000000000E+00  0.17020848819E+01  0.22166400126E+01  0.14200000000E+01 0.  1.
          4   -1    0    0  501    0  0.00000000000E+00 -0.00000000000E+00 -0.50513131339E+02  0.50533086564E+02  0.14200000000E+01 0. -1.
       1023    2    1    2    0    0  0.00000000000E+00  0.00000000000E+00 -0.48811046457E+02  0.52749726576E+02  0.20000384938E+02 0.  0.
        -11    1    3    3    0    0  0.83529947802E+01 -0.54981737450E+01 -0.24504657961E+02  0.26466595897E+02  0.51100000000E-03 0. -1.
         11    1    3    3    0    0 -0.83529947802E+01  0.54981737450E+01 -0.24306388496E+02  0.26283130679E+02  0.51100000000E-03 0.  1.
<mgrwt>
<rscale>  0 0.20000385E+02</rscale>
<asrwt>0</asrwt>
<pdfrwt beam="2">  1        4 0.78123662E-02 0.20000385E+02</pdfrwt>
<pdfrwt beam="1">  1       -4 0.30297543E-03 0.20000385E+02</pdfrwt>
<totfact> 0.11405661E+06</totfact>
</mgrwt>
</event>
<event>
 5    1  0.1154861E-006  0.2000829E+02  0.7818608E-02  0.1745163E+00
          4   -1    0    0  501    0  0.00000000000E+00  0.00000000000E+00  0.60083864180E+01  0.61739053562E+01  0.14200000000E+01 0.  1.
         -4   -1    0    0    0  501 -0.00000000000E+00 -0.00000000000E+00 -0.16233958811E+02  0.16295944854E+02  0.14200000000E+01 0. -1.
       1023    2    1    2    0    0  0.00000000000E+00  0.00000000000E+00 -0.10225572393E+02  0.22469850210E+02  0.20008294223E+02 0.  0.
        -11    1    3    3    0    0 -0.16293915819E+01  0.98703136424E+01 -0.50337675745E+01  0.11198965335E+02  0.51100000000E-03 0. -1.
         11    1    3    3    0    0  0.16293915819E+01 -0.98703136424E+01 -0.51918048188E+01  0.11270884875E+02  0.51100000000E-03 0.  1.
<mgrwt>
<rscale>  0 0.20008294E+02</rscale>
<asrwt>0</asrwt>
<pdfrwt beam="1">  1        4 0.94186753E-03 0.20008294E+02</pdfrwt>
<pdfrwt beam="2">  1       -4 0.25150325E-02 0.20008294E+02</pdfrwt>
<totfact> 0.12858164E+06</totfact>
</mgrwt>
</event>
<event>
 5    1  0.1223638E-006  0.2000091E+02  0.7818608E-02  0.1745310E+00
          4   -1    0    0  501    0  0.00000000000E+00  0.00000000000E+00  0.10102951051E+02  0.10202255630E+02  0.14200000000E+01 0. -1.
         -4   -1    0    0    0  501 -0.00000000000E+00 -0.00000000000E+00 -0.96993316136E+01  0.98027258327E+01  0.14200000000E+01 0.  1.
       1023    2    1    2    0    0  0.00000000000E+00  0.00000000000E+00  0.40361943757E+00  0.20004981463E+02  0.20000909346E+02 0.  0.
        -11    1    3    3    0    0  0.91390463576E+01  0.40603788838E+01  0.18604574876E+00  0.10002172678E+02  0.51100000000E-03 0. -1.
         11    1    3    3    0    0 -0.91390463576E+01 -0.40603788838E+01  0.21757368881E+00  0.10002808784E+02  0.51100000000E-03 0.  1.
<mgrwt>
<rscale>  0 0.20000909E+02</rscale>
<asrwt>0</asrwt>
<pdfrwt beam="1">  1        4 0.15698924E-02 0.20000909E+02</pdfrwt>
<pdfrwt beam="2">  1       -4 0.15077971E-02 0.20000909E+02</pdfrwt>
<totfact> 0.13012541E+06</totfact>
</mgrwt>
</event>
<event>
 5    1  0.1154861E-006  0.2000008E+02  0.7818608E-02  0.1745326E+00
          4   -1    0    0  501    0  0.00000000000E+00  0.00000000000E+00  0.46951105576E+00  0.14956071113E+01  0.14200000000E+01 0. -1.
         -4   -1    0    0    0  501 -0.00000000000E+00 -0.00000000000E+00 -0.10074219816E+03  0.10075220539E+03  0.14200000000E+01 0.  1.
       1023    2    1    2    0    0  0.00000000000E+00  0.00000000000E+00 -0.10027268711E+03  0.10224781250E+03  0.20000084534E+02 0.  0.
        -11    1    3    3    0    0 -0.29757395644E+01 -0.95469918834E+01 -0.49994932959E+02  0.50985227290E+02  0.51100000000E-03 0. -1.
         11    1    3    3    0    0  0.29757395644E+01  0.95469918834E+01 -0.50277754147E+02  0.51262585209E+02  0.51100000000E-03 0.  1.
<mgrwt>
<rscale>  0 0.20000085E+02</rscale>
<asrwt>0</asrwt>
<pdfrwt beam="1">  1        4 0.15193280E-03 0.20000085E+02</pdfrwt>
<pdfrwt beam="2">  1       -4 0.15578492E-01 0.20000085E+02</pdfrwt>
<totfact> 0.97376270E+05</totfact>
</mgrwt>
</event>
<event>
 5    1  0.1158697E-006  0.2000058E+02  0.7818608E-02  0.1745317E+00
         -4   -1    0    0    0  501 -0.00000000000E+00  0.00000000000E+00  0.15796510777E+02  0.15860206579E+02  0.14200000000E+01 0.  1.
          4   -1    0    0  501    0  0.00000000000E+00 -0.00000000000E+00 -0.61736810483E+01  0.63348826103E+01  0.14200000000E+01 0. -1.
       1023    2    1    2    0    0  0.00000000000E+00  0.00000000000E+00  0.96228297288E+01  0.22195089189E+02  0.20000578295E+02 0.  0.
        -11    1    3    3    0    0  0.35750891265E+01 -0.93392418069E+01  0.48730317762E+01  0.11124259020E+02  0.51100000000E-03 0.  1.
         11    1    3    3    0    0 -0.35750891265E+01  0.93392418069E+01  0.47497979526E+01  0.11070830169E+02  0.51100000000E-03 0. -1.
<mgrwt>
<rscale>  0 0.20000578E+02</rscale>
<asrwt>0</asrwt>
<pdfrwt beam="2">  1        4 0.96709689E-03 0.20000578E+02</pdfrwt>
<pdfrwt beam="1">  1       -4 0.24475322E-02 0.20000578E+02</pdfrwt>
<totfact> 0.12884156E+06</totfact>
</mgrwt>
</event>
<event>
 5    1  0.1171954E-006  0.2000219E+02  0.7818608E-02  0.1745285E+00
          4   -1    0    0  501    0  0.00000000000E+00  0.00000000000E+00  0.91231120753E+01  0.92329612768E+01  0.14200000000E+01 0.  1.
         -4   -1    0    0    0  501 -0.00000000000E+00 -0.00000000000E+00 -0.10741105180E+02  0.10834562311E+02  0.14200000000E+01 0. -1.
       1023    2    1    2    0    0  0.00000000000E+00  0.00000000000E+00 -0.16179931042E+01  0.20067523588E+02  0.20002189912E+02 0.  0.
        -11    1    3    3    0    0  0.44877969326E+01 -0.89372123577E+01 -0.89768223841E+00  0.10040912294E+02  0.51100000000E-03 0.  1.
         11    1    3    3    0    0 -0.44877969326E+01  0.89372123577E+01 -0.72031086583E+00  0.10026611294E+02  0.51100000000E-03 0. -1.
<mgrwt>
<rscale>  0 0.20002190E+02</rscale>
<asrwt>0</asrwt>
<pdfrwt beam="1">  1        4 0.14191947E-02 0.20002190E+02</pdfrwt>
<pdfrwt beam="2">  1       -4 0.16681167E-02 0.20002190E+02</pdfrwt>
<totfact> 0.13007130E+06</totfact>
</mgrwt>
</event>
<event>
 4    1  0.1154861E-006  0.2005623E+02  0.7818608E-02  0.1744212E+00
          4   -1    0    0  501    0  0.00000000000E+00  0.00000000000E+00  0.43583366566E+02  0.43606493108E+02  0.14200000000E+01 0. -1.
         -4   -1    0    0    0  501 -0.00000000000E+00 -0.00000000000E+00 -0.20628253434E+01  0.25043259367E+01  0.14200000000E+01 0.  1.
        -11    1    1    2    0    0 -0.99369082343E+01  0.13494171332E+01  0.20761492474E+02  0.23056509750E+02  0.51100000000E-03 0. -1.
         11    1    1    2    0    0  0.99369082343E+01 -0.13494171332E+01  0.20759048748E+02  0.23054309295E+02  0.51100000000E-03 0.  1.
<mgrwt>
<rscale>  0 0.20056228E+02</rscale>
<asrwt>0</asrwt>
<pdfrwt beam="1">  1        4 0.67408733E-02 0.20056228E+02</pdfrwt>
<pdfrwt beam="2">  1       -4 0.35309832E-03 0.20056228E+02</pdfrwt>
<totfact> 0.11620855E+06</totfact>
</mgrwt>
</event>
<event>
 4    1  0.1154861E-006  0.2003398E+02  0.7818608E-02  0.1744653E+00
         -4   -1    0    0    0  501 -0.00000000000E+00  0.00000000000E+00  0.92975807487E+01  0.94053924840E+01  0.14200000000E+01 0.  1.
          4   -1    0    0  501    0  0.00000000000E+00 -0.00000000000E+00 -0.10574311272E+02  0.10669229536E+02  0.14200000000E+01 0. -1.
        -11    1    1    2    0    0  0.98000314800E+01 -0.20716788319E+01 -0.55082873906E+00  0.10031743754E+02  0.51100000000E-03 0. -1.
         11    1    1    2    0    0 -0.98000314800E+01  0.20716788319E+01 -0.72590178469E+00  0.10042878265E+02  0.51100000000E-03 0.  1.
<mgrwt>
<rscale>  0 0.20033981E+02</rscale>
<asrwt>0</asrwt>
<pdfrwt beam="2">  1        4 0.16424117E-02 0.20033981E+02</pdfrwt>
<pdfrwt beam="1">  1       -4 0.14459916E-02 0.20033981E+02</pdfrwt>
<totfact> 0.12964587E+06</totfact>
</mgrwt>
</event>
<event>
 5    1  0.1154861E-006  0.2001137E+02  0.7818608E-02  0.1745102E+00
         -4   -1    0    0    0  501 -0.00000000000E+00  0.00000000000E+00  0.25558662109E+02  0.25598078225E+02  0.14200000000E+01 0. -1.
          4   -1    0    0  501    0  0.00000000000E+00 -0.00000000000E+00 -0.37443754861E+01  0.40045908381E+01  0.14200000000E+01 0.  1.
       1023    2    1    2    0    0  0.00000000000E+00  0.00000000000E+00  0.21814286623E+02  0.29602669063E+02  0.20011369638E+02 0.  0.
        -11    1    3    3    0    0  0.74358468600E+01 -0.66892054342E+01  0.10498150182E+02  0.14499946392E+02  0.51100000000E-03 0. -1.
         11    1    3    3    0    0 -0.74358468600E+01  0.66892054342E+01  0.11316136441E+02  0.15102722671E+02  0.51100000000E-03 0.  1.
<mgrwt>
<rscale>  0 0.20011370E+02</rscale>
<asrwt>0</asrwt>
<pdfrwt beam="2">  1        4 0.59910633E-03 0.20011370E+02</pdfrwt>
<pdfrwt beam="1">  1       -4 0.39551505E-02 0.20011370E+02</pdfrwt>
<totfact> 0.12462142E+06</totfact>
</mgrwt>
</event>
<event>
 5    1  0.1154861E-006  0.2000242E+02  0.7818608E-02  0.1745280E+00
          4   -1    0    0  501    0  0.00000000000E+00  0.00000000000E+00  0.73187340752E+01  0.74552175329E+01  0.14200000000E+01 0.  1.
         -4   -1    0    0    0  501 -0.00000000000E+00 -0.00000000000E+00 -0.13366181500E+02  0.13441399030E+02  0.14200000000E+01 0. -1.
       1023    2    1    2    0    0  0.00000000000E+00  0.00000000000E+00 -0.60474474249E+01  0.20896616563E+02  0.20002423939E+02 0.  0.
        -11    1    3    3    0    0  0.15825852483E+01 -0.98748852892E+01 -0.31066778035E+01  0.10472315063E+02  0.51100000000E-03 0. -1.
         11    1    3    3    0    0 -0.15825852483E+01  0.98748852892E+01 -0.29407696215E+01  0.10424301500E+02  0.51100000000E-03 0.  1.
<mgrwt>
<rscale>  0 0.20002424E+02</rscale>
<asrwt>0</asrwt>
<pdfrwt beam="1">  1        4 0.11422438E-02 0.20002424E+02</pdfrwt>
<pdfrwt beam="2">  1       -4 0.20726203E-02 0.20002424E+02</pdfrwt>
<totfact> 0.12957653E+06</totfact>
</mgrwt>
</event>
<event>
 5    1  0.1154861E-006  0.2000390E+02  0.7818608E-02  0.1745251E+00
          4   -1    0    0  501    0  0.00000000000E+00  0.00000000000E+00  0.36635695498E+02  0.36663204778E+02  0.14200000000E+01 0. -1.
         -4   -1    0    0    0  501 -0.00000000000E+00 -0.00000000000E+00 -0.25154764704E+01  0.28886020621E+01  0.14200000000E+01 0.  1.
       1023    2    1    2    0    0  0.00000000000E+00  0.00000000000E+00  0.34120219027E+02  0.39551806840E+02  0.20003901566E+02 0.  0.
        -11    1    3    3    0    0  0.28692458531E+01  0.95815650675E+01  0.17075205379E+02  0.19788926194E+02  0.51100000000E-03 0.  1.
         11    1    3    3    0    0 -0.28692458531E+01 -0.95815650675E+01  0.17045013648E+02  0.19762880646E+02  0.51100000000E-03 0. -1.
<mgrwt>
<rscale>  0 0.20003902E+02</rscale>
<asrwt>0</asrwt>
<pdfrwt beam="1">  1        4 0.56670791E-02 0.20003902E+02</pdfrwt>
<pdfrwt beam="2">  1       -4 0.41781444E-03 0.20003902E+02</pdfrwt>
<totfact> 0.11978790E+06</totfact>
</mgrwt>
</event>
<event>
 5    1  0.1191747E-006  0.2000090E+02  0.7818608E-02  0.1745310E+00
         -4   -1    0    0    0  501 -0.00000000000E+00  0.00000000000E+00  0.21003329601E+02  0.21051276786E+02  0.14200000000E+01 0. -1.
          4   -1    0    0  501    0  0.00000000000E+00 -0.00000000000E+00 -0.46010113104E+01  0.48151536920E+01  0.14200000000E+01 0.  1.
       1023    2    1    2    0    0  0.00000000000E+00  0.00000000000E+00  0.16402318290E+02  0.25866430478E+02  0.20000904489E+02 0.  0.
        -11    1    3    3    0    0  0.49888154625E+01  0.86669407237E+01  0.81105974351E+01  0.12875788607E+02  0.51100000000E-03 0.  1.
         11    1    3    3    0    0 -0.49888154625E+01 -0.86669407237E+01  0.82917208554E+01  0.12990641871E+02  0.51100000000E-03 0. -1.
<mgrwt>
<rscale>  0 0.20000904E+02</rscale>
<asrwt>0</asrwt>
<pdfrwt beam="2">  1        4 0.72800862E-03 0.20000904E+02</pdfrwt>
<pdfrwt beam="1">  1       -4 0.32514422E-02 0.20000904E+02</pdfrwt>
<totfact> 0.12676360E+06</totfact>
</mgrwt>
</event>
<event>
 5    1  0.1154861E-006  0.2000067E+02  0.7818608E-02  0.1745315E+00
         -4   -1    0    0    0  501 -0.00000000000E+00  0.00000000000E+00  0.38296432849E+02  0.38322750018E+02  0.14200000000E+01 0.  1.
          4   -1    0    0  501    0  0.00000000000E+00 -0.00000000000E+00 -0.23890256146E+01  0.27791803445E+01  0.14200000000E+01 0. -1.
       1023    2    1    2    0    0  0.00000000000E+00  0.00000000000E+00  0.35907407234E+02  0.41101930363E+02  0.20000669620E+02 0.  0.
        -11    1    3    3    0    0  0.41457408985E+01 -0.91002120451E+01  0.18108434881E+02  0.20686141278E+02  0.51100000000E-03 0. -1.
         11    1    3    3    0    0 -0.41457408985E+01  0.91002120451E+01  0.17798972353E+02  0.20415789085E+02  0.51100000000E-03 0.  1.
<mgrwt>
<rscale>  0 0.20000670E+02</rscale>
<asrwt>0</asrwt>
<pdfrwt beam="2">  1        4 0.39957869E-03 0.20000670E+02</pdfrwt>
<pdfrwt beam="1">  1       -4 0.59237953E-02 0.20000670E+02</pdfrwt>
<totfact> 0.11910821E+06</totfact>
</mgrwt>
</event>
<event>
 4    1  0.1154861E-006  0.2001442E+02  0.7818608E-02  0.1745042E+00
         -4   -1    0    0    0  501 -0.00000000000E+00  0.00000000000E+00  0.11378273501E+03  0.11379159541E+03  0.14200000000E+01 0. -1.
          4   -1    0    0  501    0  0.00000000000E+00 -0.00000000000E+00 -0.29260339109E+00  0.14498333506E+01  0.14200000000E+01 0.  1.
        -11    1    1    2    0    0  0.30550195242E+01 -0.95251061661E+01  0.58408298221E+02  0.59258671037E+02  0.51100000000E-03 0.  1.
         11    1    1    2    0    0 -0.30550195242E+01  0.95251061661E+01  0.55081833398E+02  0.55982757725E+02  0.51100000000E-03 0. -1.
<mgrwt>
<rscale>  0 0.20014418E+02</rscale>
<asrwt>0</asrwt>
<pdfrwt beam="2">  1        4 0.13471505E-03 0.20014418E+02</pdfrwt>
<pdfrwt beam="1">  1       -4 0.17594751E-01 0.20014418E+02</pdfrwt>
<totfact> 0.93738839E+05</totfact>
</mgrwt>
</event>
<event>
 4    1  0.1154861E-006  0.2002417E+02  0.7818608E-02  0.1744848E+00
         -4   -1    0    0    0  501 -0.00000000000E+00  0.00000000000E+00  0.56461028403E+02  0.56478882145E+02  0.14200000000E+01 0. -1.
          4   -1    0    0  501    0  0.00000000000E+00 -0.00000000000E+00 -0.14703665692E+01  0.20441080812E+01  0.14200000000E+01 0.  1.
        -11    1    1    2    0    0  0.57204582755E+01 -0.82109582750E+01  0.26578564662E+02  0.28400063000E+02  0.51100000000E-03 0. -1.
         11    1    1    2    0    0 -0.57204582755E+01  0.82109582750E+01  0.28412097172E+02  0.30122927226E+02  0.51100000000E-03 0.  1.
<mgrwt>
<rscale>  0 0.20024173E+02</rscale>
<asrwt>0</asrwt>
<pdfrwt beam="2">  1        4 0.27171752E-03 0.20024173E+02</pdfrwt>
<pdfrwt beam="1">  1       -4 0.87318210E-02 0.20024173E+02</pdfrwt>
<totfact> 0.11148734E+06</totfact>
</mgrwt>
</event>
<event>
 5    1  0.1154861E-006  0.2000062E+02  0.7818608E-02  0.1745316E+00
          4   -1    0    0  501    0  0.00000000000E+00  0.00000000000E+00  0.52910286486E+01  0.54782647034E+01  0.14200000000E+01 0. -1.
         -4   -1    0    0    0  501 -0.00000000000E+00 -0.00000000000E+00 -0.18357345595E+02  0.18412184479E+02  0.14200000000E+01 0.  1.
       1023    2    1    2    0    0  0.00000000000E+00  0.00000000000E+00 -0.13066316947E+02  0.23890449183E+02  0.20000623081E+02 0.  0.
        -11    1    3    3    0    0  0.85333411479E+01  0.52141719823E+01 -0.65654324372E+01  0.11962876074E+02  0.51100000000E-03 0.  1.
         11    1    3    3    0    0 -0.85333411479E+01 -0.52141719823E+01 -0.65008845095E+01  0.11927573109E+02  0.51100000000E-03 0. -1.
<mgrwt>
<rscale>  0 0.20000623E+02</rscale>
<asrwt>0</asrwt>
<pdfrwt beam="1">  1        4 0.83262557E-03 0.20000623E+02</pdfrwt>
<pdfrwt beam="2">  1       -4 0.28428281E-02 0.20000623E+02</pdfrwt>
<totfact> 0.12787133E+06</totfact>
</mgrwt>
</event>
<event>
 4    1  0.1154861E-006  0.2001562E+02  0.7818608E-02  0.1745018E+00
          4   -1    0    0  501    0  0.00000000000E+00  0.00000000000E+00  0.32165515172E+01  0.35160494398E+01  0.14200000000E+01 0. -1.
         -4   -1    0    0    0  501 -0.00000000000E+00 -0.00000000000E+00 -0.29435241309E+02  0.29469472864E+02  0.14200000000E+01 0.  1.
        -11    1    1    2    0    0 -0.30198812796E+00 -0.10001326178E+02 -0.13432806228E+02  0.16749865837E+02  0.51100000000E-03 0.  1.
         11    1    1    2    0    0  0.30198812796E+00  0.10001326178E+02 -0.12785883563E+02  0.16235656467E+02  0.51100000000E-03 0. -1.
<mgrwt>
<rscale>  0 0.20015619E+02</rscale>
<asrwt>0</asrwt>
<pdfrwt beam="1">  1        4 0.52052560E-03 0.20015619E+02</pdfrwt>
<pdfrwt beam="2">  1       -4 0.45541700E-02 0.20015619E+02</pdfrwt>
<totfact> 0.12282955E+06</totfact>
</mgrwt>
</event>
<event>
 5    1  0.1154861E-006  0.2000029E+02  0.7818608E-02  0.1745322E+00
          4   -1    0    0  501    0  0.00000000000E+00  0.00000000000E+00  0.69323697378E+01  0.70763090790E+01  0.14200000000E+01 0. -1.
         -4   -1    0    0    0  501 -0.00000000000E+00 -0.00000000000E+00 -0.14097299606E+02  0.14168636356E+02  0.14200000000E+01 0.  1.
       1023    2    1    2    0    0  0.00000000000E+00  0.00000000000E+00 -0.71649298680E+01  0.21244945435E+02  0.20000287161E+02 0.  0.
        -11    1    3    3    0    0 -0.26409181977E+01  0.96451167086E+01 -0.35953050504E+01  0.10626803090E+02  0.51100000000E-03 0.  1.
         11    1    3    3    0    0  0.26409181977E+01 -0.96451167086E+01 -0.35696248176E+01  0.10618142345E+02  0.51100000000E-03 0. -1.
<mgrwt>
<rscale>  0 0.20000287E+02</rscale>
<asrwt>0</asrwt>
<pdfrwt beam="1">  1        4 0.10830781E-02 0.20000287E+02</pdfrwt>
<pdfrwt beam="2">  1       -4 0.21853750E-02 0.20000287E+02</pdfrwt>
<totfact> 0.12939944E+06</totfact>
</mgrwt>
</event>
<event>
 5    1  0.1154861E-006  0.2000015E+02  0.7818608E-02  0.1745325E+00
         -4   -1    0    0    0  501 -0.00000000000E+00  0.00000000000E+00  0.22884551650E+02  0.22928565246E+02  0.14200000000E+01 0. -1.
          4   -1    0    0  501    0  0.00000000000E+00 -0.00000000000E+00 -0.42048520952E+01  0.44381506444E+01  0.14200000000E+01 0.  1.
       1023    2    1    2    0    0  0.00000000000E+00  0.00000000000E+00  0.18679699555E+02  0.27366715890E+02  0.20000149078E+02 0.  0.
        -11    1    3    3    0    0  0.12232282799E+01 -0.99249564815E+01  0.93110842041E+01  0.13663723427E+02  0.51100000000E-03 0.  1.
         11    1    3    3    0    0 -0.12232282799E+01  0.99249564815E+01  0.93686153511E+01  0.13702992463E+02  0.51100000000E-03 0. -1.
<mgrwt>
<rscale>  0 0.20000149E+02</rscale>
<asrwt>0</asrwt>
<pdfrwt beam="2">  1        4 0.66823203E-03 0.20000149E+02</pdfrwt>
<pdfrwt beam="1">  1       -4 0.35420320E-02 0.20000149E+02</pdfrwt>
<totfact> 0.12595440E+06</totfact>
</mgrwt>
</event>
<event>
 5    1  0.1154861E-006  0.2000044E+02  0.7818608E-02  0.1745319E+00
          4   -1    0    0  501    0  0.00000000000E+00  0.00000000000E+00  0.10078360634E+02  0.10177905142E+02  0.14200000000E+01 0. -1.
         -4   -1    0    0    0  501 -0.00000000000E+00 -0.00000000000E+00 -0.97225525691E+01  0.98257024410E+01  0.14200000000E+01 0.  1.
       1023    2    1    2    0    0  0.00000000000E+00  0.00000000000E+00  0.35580806505E+00  0.20003607583E+02  0.20000442919E+02 0.  0.
        -11    1    3    3    0    0  0.18991419662E+01 -0.98180516332E+01  0.23750283987E+00  0.10002863887E+02  0.51100000000E-03 0.  1.
         11    1    3    3    0    0 -0.18991419662E+01  0.98180516332E+01  0.11830522518E+00  0.10000743696E+02  0.51100000000E-03 0. -1.
<mgrwt>
<rscale>  0 0.20000443E+02</rscale>
<asrwt>0</asrwt>
<pdfrwt beam="1">  1        4 0.15661089E-02 0.20000443E+02</pdfrwt>
<pdfrwt beam="2">  1       -4 0.15113692E-02 0.20000443E+02</pdfrwt>
<totfact> 0.13013242E+06</totfact>
</mgrwt>
</event>
<event>
 5    1  0.1154861E-006  0.2000039E+02  0.7818608E-02  0.1745320E+00
         -4   -1    0    0    0  501 -0.00000000000E+00  0.00000000000E+00  0.36351212781E+02  0.36378937184E+02  0.14200000000E+01 0. -1.
          4   -1    0    0  501    0  0.00000000000E+00 -0.00000000000E+00 -0.25370235896E+01  0.29073851988E+01  0.14200000000E+01 0.  1.
       1023    2    1    2    0    0  0.00000000000E+00  0.00000000000E+00  0.33814189191E+02  0.39286322382E+02  0.20000393389E+02 0.  0.
        -11    1    3    3    0    0 -0.99999110773E+01 -0.46579332724E-01  0.17024005851E+02  0.19743788052E+02  0.51100000000E-03 0.  1.
         11    1    3    3    0    0  0.99999110773E+01  0.46579332724E-01  0.16790183340E+02  0.19542534330E+02  0.51100000000E-03 0. -1.
<mgrwt>
<rscale>  0 0.20000393E+02</rscale>
<asrwt>0</asrwt>
<pdfrwt beam="2">  1        4 0.42093333E-03 0.20000393E+02</pdfrwt>
<pdfrwt beam="1">  1       -4 0.56231162E-02 0.20000393E+02</pdfrwt>
<totfact> 0.11995480E+06</totfact>
</mgrwt>
</event>
<event>
 5    1  0.1154861E-006  0.2000040E+02  0.7818608E-02  0.1745320E+00
          4   -1    0    0  501    0  0.00000000000E+00  0.00000000000E+00  0.58707036449E+02  0.58724207348E+02  0.14200000000E+01 0. -1.
         -4   -1    0    0    0  501 -0.00000000000E+00 -0.00000000000E+00 -0.13869817207E+01  0.19849731216E+01  0.14200000000E+01 0.  1.
       1023    2    1    2    0    0  0.00000000000E+00  0.00000000000E+00  0.57320054728E+02  0.60709180469E+02  0.20000397976E+02 0.  0.
        -11    1    3    3    0    0 -0.47980739318E+01  0.87738453203E+01  0.28520782861E+02  0.30223119138E+02  0.51100000000E-03 0. -1.
         11    1    3    3    0    0  0.47980739318E+01 -0.87738453203E+01  0.28799271867E+02  0.30486061331E+02  0.51100000000E-03 0.  1.
<mgrwt>
<rscale>  0 0.20000398E+02</rscale>
<asrwt>0</asrwt>
<pdfrwt beam="1">  1        4 0.90791723E-02 0.20000398E+02</pdfrwt>
<pdfrwt beam="2">  1       -4 0.26070197E-03 0.20000398E+02</pdfrwt>
<totfact> 0.11091266E+06</totfact>
</mgrwt>
</event>
<event>
 5    1  0.1154861E-006  0.2000117E+02  0.7818608E-02  0.1745305E+00
         -4   -1    0    0    0  501 -0.00000000000E+00  0.00000000000E+00  0.10708807853E+01  0.17785346936E+01  0.14200000000E+01 0.  1.
          4   -1    0    0  501    0  0.00000000000E+00 -0.00000000000E+00 -0.69481303861E+02  0.69495812725E+02  0.14200000000E+01 0. -1.
       1023    2    1    2    0    0  0.00000000000E+00  0.00000000000E+00 -0.68410423076E+02  0.71274347418E+02  0.20001165328E+02 0.  0.
        -11    1    3    3    0    0 -0.95576133589E+01 -0.29432702050E+01 -0.34101885928E+02  0.35537999897E+02  0.51100000000E-03 0. -1.
         11    1    3    3    0    0  0.95576133589E+01  0.29432702050E+01 -0.34308537148E+02  0.35736347521E+02  0.51100000000E-03 0.  1.
<mgrwt>
<rscale>  0 0.20001165E+02</rscale>
<asrwt>0</asrwt>
<pdfrwt beam="2">  1        4 0.10744980E-01 0.20001165E+02</pdfrwt>
<pdfrwt beam="1">  1       -4 0.22030193E-03 0.20001165E+02</pdfrwt>
<totfact> 0.10704790E+06</totfact>
</mgrwt>
</event>
<event>
 5    1  0.1154861E-006  0.2000241E+02  0.7818608E-02  0.1745280E+00
          4   -1    0    0  501    0  0.00000000000E+00  0.00000000000E+00  0.10581670577E+02  0.10676523413E+02  0.14200000000E+01 0.  1.
         -4   -1    0    0    0  501 -0.00000000000E+00 -0.00000000000E+00 -0.92611922190E+01  0.93694226779E+01  0.14200000000E+01 0. -1.
       1023    2    1    2    0    0  0.00000000000E+00  0.00000000000E+00  0.13204783578E+01  0.20045946091E+02  0.20002407145E+02 0.  0.
        -11    1    3    3    0    0 -0.97392292646E+01  0.22736692747E+01  0.70408369845E+00  0.10025861198E+02  0.51100000000E-03 0. -1.
         11    1    3    3    0    0  0.97392292646E+01 -0.22736692747E+01  0.61639465939E+00  0.10020084894E+02  0.51100000000E-03 0.  1.
<mgrwt>
<rscale>  0 0.20002407E+02</rscale>
<asrwt>0</asrwt>
<pdfrwt beam="1">  1        4 0.16435711E-02 0.20002407E+02</pdfrwt>
<pdfrwt beam="2">  1       -4 0.14404206E-02 0.20002407E+02</pdfrwt>
<totfact> 0.13008121E+06</totfact>
</mgrwt>
</event>
<event>
 5    1  0.1182432E-006  0.2000120E+02  0.7818608E-02  0.1745304E+00
         -4   -1    0    0    0  501 -0.00000000000E+00  0.00000000000E+00  0.35344234170E+02  0.35372747830E+02  0.14200000000E+01 0. -1.
          4   -1    0    0  501    0  0.00000000000E+00 -0.00000000000E+00 -0.26198863050E+01  0.29799671561E+01  0.14200000000E+01 0.  1.
       1023    2    1    2    0    0  0.00000000000E+00  0.00000000000E+00  0.32724347865E+02  0.38352714986E+02  0.20001195055E+02 0.  0.
        -11    1    3    3    0    0  0.67810368088E+00  0.99770703855E+01  0.16555763527E+02  0.19341537279E+02  0.51100000000E-03 0.  1.
         11    1    3    3    0    0 -0.67810368088E+00 -0.99770703855E+01  0.16168584338E+02  0.19011177708E+02  0.51100000000E-03 0. -1.
<mgrwt>
<rscale>  0 0.20001195E+02</rscale>
<asrwt>0</asrwt>
<pdfrwt beam="2">  1        4 0.43295130E-03 0.20001195E+02</pdfrwt>
<pdfrwt beam="1">  1       -4 0.54674666E-02 0.20001195E+02</pdfrwt>
<totfact> 0.12038525E+06</totfact>
</mgrwt>
</event>
<event>
 5    1  0.1154861E-006  0.2000017E+02  0.7818608E-02  0.1745325E+00
         -4   -1    0    0    0  501 -0.00000000000E+00  0.00000000000E+00  0.40815370869E+01  0.43214980032E+01  0.14200000000E+01 0. -1.
          4   -1    0    0  501    0  0.00000000000E+00 -0.00000000000E+00 -0.23539366809E+02  0.23582158293E+02  0.14200000000E+01 0.  1.
       1023    2    1    2    0    0  0.00000000000E+00  0.00000000000E+00 -0.19457829722E+02  0.27903656297E+02  0.20000172430E+02 0.  0.
        -11    1    3    3    0    0 -0.10000006534E+02 -0.29668745267E-01 -0.97661723375E+01  0.13977808601E+02  0.51100000000E-03 0.  1.
         11    1    3    3    0    0  0.10000006534E+02  0.29668745267E-01 -0.96916573848E+01  0.13925847695E+02  0.51100000000E-03 0. -1.
<mgrwt>
<rscale>  0 0.20000172E+02</rscale>
<asrwt>0</asrwt>
<pdfrwt beam="2">  1        4 0.36431912E-02 0.20000172E+02</pdfrwt>
<pdfrwt beam="1">  1       -4 0.64967898E-03 0.20000172E+02</pdfrwt>
<totfact> 0.12566497E+06</totfact>
</mgrwt>
</event>
<event>
 5    1  0.1154861E-006  0.2000499E+02  0.7818608E-02  0.1745229E+00
          4   -1    0    0  501    0  0.00000000000E+00  0.00000000000E+00  0.17080329268E+02  0.17139254590E+02  0.14200000000E+01 0. -1.
         -4   -1    0    0    0  501 -0.00000000000E+00 -0.00000000000E+00 -0.57013577876E+01  0.58755323693E+01  0.14200000000E+01 0.  1.
       1023    2    1    2    0    0  0.00000000000E+00  0.00000000000E+00  0.11378971480E+02  0.23014786959E+02  0.20004985050E+02 0.  0.
        -11    1    3    3    0    0 -0.43596433419E+01 -0.90001892218E+01  0.59194621957E+01  0.11621098444E+02  0.51100000000E-03 0. -1.
         11    1    3    3    0    0  0.43596433419E+01  0.90001892218E+01  0.54595092847E+01  0.11393688515E+02  0.51100000000E-03 0.  1.
<mgrwt>
<rscale>  0 0.20004985E+02</rscale>
<asrwt>0</asrwt>
<pdfrwt beam="1">  1        4 0.26456737E-02 0.20004985E+02</pdfrwt>
<pdfrwt beam="2">  1       -4 0.89506273E-03 0.20004985E+02</pdfrwt>
<totfact> 0.12831210E+06</totfact>
</mgrwt>
</event>
<event>
 5    1  0.1154861E-006  0.2000024E+02  0.7818608E-02  0.1745323E+00
          4   -1    0    0  501    0  0.00000000000E+00  0.00000000000E+00  0.39004429995E+02  0.39030269782E+02  0.14200000000E+01 0.  1.
         -4   -1    0    0    0  501 -0.00000000000E+00 -0.00000000000E+00 -0.23384292586E+01  0.27358090938E+01  0.14200000000E+01 0. -1.
       1023    2    1    2    0    0  0.00000000000E+00  0.00000000000E+00  0.36666000736E+02  0.41766078875E+02  0.20000243364E+02 0.  0.
        -11    1    3    3    0    0 -0.90915859647E+01 -0.41647925793E+01  0.18334883921E+02  0.20884692988E+02  0.51100000000E-03 0. -1.
         11    1    3    3    0    0  0.90915859647E+01  0.41647925793E+01  0.18331116816E+02  0.20881385887E+02  0.51100000000E-03 0.  1.
<mgrwt>
<rscale>  0 0.20000243E+02</rscale>
<asrwt>0</asrwt>
<pdfrwt beam="1">  1        4 0.60332364E-02 0.20000243E+02</pdfrwt>
<pdfrwt beam="2">  1       -4 0.39231373E-03 0.20000243E+02</pdfrwt>
<totfact> 0.11880900E+06</totfact>
</mgrwt>
</event>
<event>
 5    1  0.1154861E-006  0.2000033E+02  0.7818608E-02  0.1745322E+00
         -4   -1    0    0    0  501 -0.00000000000E+00  0.00000000000E+00  0.28640013520E+02  0.28675194410E+02  0.14200000000E+01 0.  1.
          4   -1    0    0  501    0  0.00000000000E+00 -0.00000000000E+00 -0.33083849474E+01  0.36002515135E+01  0.14200000000E+01 0. -1.
       1023    2    1    2    0    0  0.00000000000E+00  0.00000000000E+00  0.25331628573E+02  0.32275445923E+02  0.20000325082E+02 0.  0.
        -11    1    3    3    0    0 -0.99781384289E+01 -0.66210541137E+00  0.12730776421E+02  0.16188708986E+02  0.51100000000E-03 0. -1.
         11    1    3    3    0    0  0.99781384289E+01  0.66210541137E+00  0.12600852151E+02  0.16086736937E+02  0.51100000000E-03 0.  1.
<mgrwt>
<rscale>  0 0.20000325E+02</rscale>
<asrwt>0</asrwt>
<pdfrwt beam="2">  1        4 0.53413979E-03 0.20000325E+02</pdfrwt>
<pdfrwt beam="1">  1       -4 0.44313135E-02 0.20000325E+02</pdfrwt>
<totfact> 0.12338013E+06</totfact>
</mgrwt>
</event>
<event>
 5    1  0.1174246E-006  0.2000156E+02  0.7818608E-02  0.1745297E+00
          4   -1    0    0  501    0  0.00000000000E+00  0.00000000000E+00  0.53703305783E+01  0.55548942853E+01  0.14200000000E+01 0.  1.
         -4   -1    0    0    0  501 -0.00000000000E+00 -0.00000000000E+00 -0.18096266143E+02  0.18151893794E+02  0.14200000000E+01 0. -1.
       1023    2    1    2    0    0  0.00000000000E+00  0.00000000000E+00 -0.12725935564E+02  0.23706788079E+02  0.20001559065E+02 0.  0.
        -11    1    3    3    0    0 -0.58472557374E+01  0.81127473357E+01 -0.62535520345E+01  0.11794659058E+02  0.51100000000E-03 0.  1.
         11    1    3    3    0    0  0.58472557374E+01 -0.81127473357E+01 -0.64723835297E+01  0.11912129021E+02  0.51100000000E-03 0. -1.
<mgrwt>
<rscale>  0 0.20001559E+02</rscale>
<asrwt>0</asrwt>
<pdfrwt beam="1">  1        4 0.84468097E-03 0.20001559E+02</pdfrwt>
<pdfrwt beam="2">  1       -4 0.28025172E-02 0.20001559E+02</pdfrwt>
<totfact> 0.12796302E+06</totfact>
</mgrwt>
</event>
<event>
 5    1  0.1154861E-006  0.2000463E+02  0.7818608E-02  0.1745236E+00
          4   -1    0    0  501    0  0.00000000000E+00  0.00000000000E+00  0.76574391384E+01  0.77879890959E+01  0.14200000000E+01 0. -1.
         -4   -1    0    0    0  501 -0.00000000000E+00 -0.00000000000E+00 -0.12784618853E+02  0.12863237509E+02  0.14200000000E+01 0.  1.
       1023    2    1    2    0    0  0.00000000000E+00  0.00000000000E+00 -0.51271797144E+01  0.20651226605E+02  0.20004629176E+02 0.  0.
        -11    1    3    3    0    0  0.96666235829E+01 -0.25681627668E+01 -0.26513394616E+01  0.10347399320E+02  0.51100000000E-03 0. -1.
         11    1    3    3    0    0 -0.96666235829E+01  0.25681627668E+01 -0.24758402528E+01  0.10303827285E+02  0.51100000000E-03 0.  1.
<mgrwt>
<rscale>  0 0.20004629E+02</rscale>
<asrwt>0</asrwt>
<pdfrwt beam="1">  1        4 0.11941575E-02 0.20004629E+02</pdfrwt>
<pdfrwt beam="2">  1       -4 0.19829543E-02 0.20004629E+02</pdfrwt>
<totfact> 0.12969253E+06</totfact>
</mgrwt>
</event>
<event>
 5    1  0.1154861E-006  0.2000647E+02  0.7818608E-02  0.1745199E+00
          4   -1    0    0  501    0  0.00000000000E+00  0.00000000000E+00  0.17232895077E+02  0.17291300493E+02  0.14200000000E+01 0. -1.
         -4   -1    0    0    0  501 -0.00000000000E+00 -0.00000000000E+00 -0.56503858800E+01  0.58260844993E+01  0.14200000000E+01 0.  1.
       1023    2    1    2    0    0  0.00000000000E+00  0.00000000000E+00  0.11582509197E+02  0.23117384992E+02  0.20006473192E+02 0.  0.
        -11    1    3    3    0    0 -0.66800667857E+01  0.74455521531E+01  0.57079065542E+01  0.11516932605E+02  0.51100000000E-03 0. -1.
         11    1    3    3    0    0  0.66800667857E+01 -0.74455521531E+01  0.58746026428E+01  0.11600452388E+02  0.51100000000E-03 0.  1.
<mgrwt>
<rscale>  0 0.20006473E+02</rscale>
<asrwt>0</asrwt>
<pdfrwt beam="1">  1        4 0.26692226E-02 0.20006473E+02</pdfrwt>
<pdfrwt beam="2">  1       -4 0.88729814E-03 0.20006473E+02</pdfrwt>
<totfact> 0.12823403E+06</totfact>
</mgrwt>
</event>
<event>
 5    1  0.1156894E-006  0.2000050E+02  0.7818608E-02  0.1745318E+00
         -4   -1    0    0    0  501 -0.00000000000E+00  0.00000000000E+00  0.99476484700E+01  0.10048487950E+02  0.14200000000E+01 0.  1.
          4   -1    0    0  501    0  0.00000000000E+00 -0.00000000000E+00 -0.98504251378E+01  0.99522497655E+01  0.14200000000E+01 0. -1.
       1023    2    1    2    0    0  0.00000000000E+00  0.00000000000E+00  0.97223332191E-01  0.20000737716E+02  0.20000501414E+02 0.  0.
        -11    1    3    3    0    0  0.86345209982E+01 -0.50444487824E+01 -0.11368625094E-01  0.10000077294E+02  0.51100000000E-03 0. -1.
         11    1    3    3    0    0 -0.86345209982E+01  0.50444487824E+01  0.10859195728E+00  0.10000660421E+02  0.51100000000E-03 0.  1.
<mgrwt>
<rscale>  0 0.20000501E+02</rscale>
<asrwt>0</asrwt>
<pdfrwt beam="2">  1        4 0.15310396E-02 0.20000501E+02</pdfrwt>
<pdfrwt beam="1">  1       -4 0.15459970E-02 0.20000501E+02</pdfrwt>
<totfact> 0.13013335E+06</totfact>
</mgrwt>
</event>
<event>
 5    1  0.1154861E-006  0.2000055E+02  0.7818608E-02  0.1745317E+00
         -4   -1    0    0    0  501 -0.00000000000E+00  0.00000000000E+00  0.48114978139E+01  0.50166633545E+01  0.14200000000E+01 0. -1.
          4   -1    0    0  501    0  0.00000000000E+00 -0.00000000000E+00 -0.20120085807E+02  0.20170132693E+02  0.14200000000E+01 0.  1.
       1023    2    1    2    0    0  0.00000000000E+00  0.00000000000E+00 -0.15308587993E+02  0.25186796048E+02  0.20000545713E+02 0.  0.
        -11    1    3    3    0    0 -0.80202680517E+01 -0.59731612091E+01 -0.77120368635E+01  0.12628494261E+02  0.51100000000E-03 0.  1.
         11    1    3    3    0    0  0.80202680517E+01  0.59731612091E+01 -0.75965511292E+01  0.12558301787E+02  0.51100000000E-03 0. -1.
<mgrwt>
<rscale>  0 0.20000546E+02</rscale>
<asrwt>0</asrwt>
<pdfrwt beam="2">  1        4 0.31150295E-02 0.20000546E+02</pdfrwt>
<pdfrwt beam="1">  1       -4 0.75986217E-03 0.20000546E+02</pdfrwt>
<totfact> 0.12714477E+06</totfact>
</mgrwt>
</event>
<event>
 5    1  0.1154861E-006  0.2000082E+02  0.7818608E-02  0.1745312E+00
         -4   -1    0    0    0  501 -0.00000000000E+00  0.00000000000E+00  0.58523481672E+00  0.15358710202E+01  0.14200000000E+01 0.  1.
          4   -1    0    0  501    0  0.00000000000E+00 -0.00000000000E+00 -0.93339729908E+02  0.93350530685E+02  0.14200000000E+01 0. -1.
       1023    2    1    2    0    0  0.00000000000E+00  0.00000000000E+00 -0.92754495091E+02  0.94886401706E+02  0.20000821709E+02 0.  0.
        -11    1    3    3    0    0 -0.67707516612E+01  0.73595885735E+01 -0.46566714237E+02  0.47628410609E+02  0.51100000000E-03 0.  1.
         11    1    3    3    0    0  0.67707516612E+01 -0.73595885735E+01 -0.46187780854E+02  0.47257991097E+02  0.51100000000E-03 0. -1.
<mgrwt>
<rscale>  0 0.20000822E+02</rscale>
<asrwt>0</asrwt>
<pdfrwt beam="2">  1        4 0.14433909E-01 0.20000822E+02</pdfrwt>
<pdfrwt beam="1">  1       -4 0.16399289E-03 0.20000822E+02</pdfrwt>
<totfact> 0.99485286E+05</totfact>
</mgrwt>
</event>
<event>
 5    1  0.1192239E-006  0.2000114E+02  0.7818608E-02  0.1745305E+00
          4   -1    0    0  501    0  0.00000000000E+00  0.00000000000E+00  0.45933666080E+01  0.48078494980E+01  0.14200000000E+01 0.  1.
         -4   -1    0    0    0  501 -0.00000000000E+00 -0.00000000000E+00 -0.21037303728E+02  0.21085173657E+02  0.14200000000E+01 0. -1.
       1023    2    1    2    0    0  0.00000000000E+00  0.00000000000E+00 -0.16443937120E+02  0.25893023155E+02  0.20001139470E+02 0.  0.
        -11    1    3    3    0    0  0.68538372262E+01  0.72823916009E+01 -0.81500919937E+01  0.12900864774E+02  0.51100000000E-03 0. -1.
         11    1    3    3    0    0 -0.68538372262E+01 -0.72823916009E+01 -0.82938451263E+01  0.12992158381E+02  0.51100000000E-03 0.  1.
<mgrwt>
<rscale>  0 0.20001139E+02</rscale>
<asrwt>0</asrwt>
<pdfrwt beam="1">  1        4 0.72685279E-03 0.20001139E+02</pdfrwt>
<pdfrwt beam="2">  1       -4 0.32566892E-02 0.20001139E+02</pdfrwt>
<totfact> 0.12674591E+06</totfact>
</mgrwt>
</event>
<event>
 5    1  0.1154861E-006  0.2000136E+02  0.7818608E-02  0.1745301E+00
          4   -1    0    0  501    0  0.00000000000E+00  0.00000000000E+00  0.45999432157E+02  0.46021344599E+02  0.14200000000E+01 0.  1.
         -4   -1    0    0    0  501 -0.00000000000E+00 -0.00000000000E+00 -0.19174743174E+01  0.23860234194E+01  0.14200000000E+01 0. -1.
       1023    2    1    2    0    0  0.00000000000E+00  0.00000000000E+00  0.44081957839E+02  0.48407368019E+02  0.20001356743E+02 0.  0.
        -11    1    3    3    0    0  0.96803961654E+01  0.25096806406E+01  0.22212126782E+02  0.24359539061E+02  0.51100000000E-03 0.  1.
         11    1    3    3    0    0 -0.96803961654E+01 -0.25096806406E+01  0.21869831058E+02  0.24047828958E+02  0.51100000000E-03 0. -1.
<mgrwt>
<rscale>  0 0.20001357E+02</rscale>
<asrwt>0</asrwt>
<pdfrwt beam="1">  1        4 0.71145637E-02 0.20001357E+02</pdfrwt>
<pdfrwt beam="2">  1       -4 0.33272385E-03 0.20001357E+02</pdfrwt>
<totfact> 0.11586135E+06</totfact>
</mgrwt>
</event>
<event>
 5    1  0.1159397E-006  0.2000147E+02  0.7818608E-02  0.1745299E+00
         -4   -1    0    0    0  501 -0.00000000000E+00  0.00000000000E+00  0.39678210142E+01  0.42142619284E+01  0.14200000000E+01 0.  1.
          4   -1    0    0  501    0  0.00000000000E+00 -0.00000000000E+00 -0.24179342946E+02  0.24221003804E+02  0.14200000000E+01 0. -1.
       1023    2    1    2    0    0  0.00000000000E+00  0.00000000000E+00 -0.20211521932E+02  0.28435265733E+02  0.20001467909E+02 0.  0.
        -11    1    3    3    0    0 -0.94117833433E+01 -0.33802076609E+01 -0.10226475058E+02  0.14303435319E+02  0.51100000000E-03 0.  1.
         11    1    3    3    0    0  0.94117833433E+01  0.33802076609E+01 -0.99850468731E+01  0.14131830414E+02  0.51100000000E-03 0. -1.
<mgrwt>
<rscale>  0 0.20001468E+02</rscale>
<asrwt>0</asrwt>
<pdfrwt beam="2">  1        4 0.37420605E-02 0.20001468E+02</pdfrwt>
<pdfrwt beam="1">  1       -4 0.63259569E-03 0.20001468E+02</pdfrwt>
<totfact> 0.12536418E+06</totfact>
</mgrwt>
</event>
<event>
 5    1  0.1154861E-006  0.2000074E+02  0.7818608E-02  0.1745313E+00
         -4   -1    0    0    0  501 -0.00000000000E+00  0.00000000000E+00  0.41865101641E+00  0.14804285439E+01  0.14200000000E+01 0.  1.
          4   -1    0    0  501    0  0.00000000000E+00 -0.00000000000E+00 -0.10425269847E+03  0.10426236875E+03  0.14200000000E+01 0. -1.
       1023    2    1    2    0    0  0.00000000000E+00  0.00000000000E+00 -0.10383404745E+03  0.10574279730E+03  0.20000744233E+02 0.  0.
        -11    1    3    3    0    0  0.30346527959E+01  0.95287927127E+01 -0.51806876179E+02  0.52763239361E+02  0.51100000000E-03 0.  1.
         11    1    3    3    0    0 -0.30346527959E+01 -0.95287927127E+01 -0.52027171272E+02  0.52979557934E+02  0.51100000000E-03 0. -1.
<mgrwt>
<rscale>  0 0.20000744E+02</rscale>
<asrwt>0</asrwt>
<pdfrwt beam="2">  1        4 0.16121287E-01 0.20000744E+02</pdfrwt>
<pdfrwt beam="1">  1       -4 0.14682699E-03 0.20000744E+02</pdfrwt>
<totfact> 0.96399750E+05</totfact>
</mgrwt>
</event>
<event>
 5    1  0.1154861E-006  0.2000229E+02  0.7818608E-02  0.1745283E+00
          4   -1    0    0  501    0  0.00000000000E+00  0.00000000000E+00  0.10461494541E+02  0.10557427150E+02  0.14200000000E+01 0.  1.
         -4   -1    0    0    0  501 -0.00000000000E+00 -0.00000000000E+00 -0.93677333799E+01  0.94747468925E+01  0.14200000000E+01 0. -1.
       1023    2    1    2    0    0  0.00000000000E+00  0.00000000000E+00  0.10937611613E+01  0.20032174043E+02  0.20002291954E+02 0.  0.
        -11    1    3    3    0    0 -0.83536683984E+01  0.54986118698E+01  0.48035554835E+00  0.10012454740E+02  0.51100000000E-03 0. -1.
         11    1    3    3    0    0  0.83536683984E+01 -0.54986118698E+01  0.61340561298E+00  0.10019719303E+02  0.51100000000E-03 0.  1.
<mgrwt>
<rscale>  0 0.20002292E+02</rscale>
<asrwt>0</asrwt>
<pdfrwt beam="1">  1        4 0.16250719E-02 0.20002292E+02</pdfrwt>
<pdfrwt beam="2">  1       -4 0.14568010E-02 0.20002292E+02</pdfrwt>
<totfact> 0.13009091E+06</totfact>
</mgrwt>
</event>
<event>
 5    1  0.1159618E-006  0.2000193E+02  0.7818608E-02  0.1745290E+00
         -4   -1    0    0    0  501 -0.00000000000E+00  0.00000000000E+00  0.12168567763E+02  0.12251140412E+02  0.14200000000E+01 0.  1.
          4   -1    0    0  501    0  0.00000000000E+00 -0.00000000000E+00 -0.80467404227E+01  0.81710728445E+01  0.14200000000E+01 0. -1.
       1023    2    1    2    0    0  0.00000000000E+00  0.00000000000E+00  0.41218273401E+01  0.20422213257E+02  0.20001933249E+02 0.  0.
        -11    1    3    3    0    0 -0.83260735659E+01 -0.55392402743E+01  0.21757460578E+01  0.10234283317E+02  0.51100000000E-03 0.  1.
         11    1    3    3    0    0  0.83260735659E+01  0.55392402743E+01  0.19460812823E+01  0.10187929940E+02  0.51100000000E-03 0. -1.
<mgrwt>
<rscale>  0 0.20001933E+02</rscale>
<asrwt>0</asrwt>
<pdfrwt beam="2">  1        4 0.12538758E-02 0.20001933E+02</pdfrwt>
<pdfrwt beam="1">  1       -4 0.18880031E-02 0.20001933E+02</pdfrwt>
<totfact> 0.12986369E+06</totfact>
</mgrwt>
</event>
<event>
 5    1  0.1154861E-006  0.2000119E+02  0.7818608E-02  0.1745304E+00
          4   -1    0    0  501    0  0.00000000000E+00  0.00000000000E+00  0.91581505312E+02  0.91592513423E+02  0.14200000000E+01 0.  1.
         -4   -1    0    0    0  501 -0.00000000000E+00 -0.00000000000E+00 -0.61460335922E+00  0.15472999997E+01  0.14200000000E+01 0. -1.
       1023    2    1    2    0    0  0.00000000000E+00  0.00000000000E+00  0.90966901952E+02  0.93139813423E+02  0.20001189805E+02 0.  0.
        -11    1    3    3    0    0  0.59210684016E+01 -0.80589035571E+01  0.45096058834E+02  0.46191552260E+02  0.51100000000E-03 0.  1.
         11    1    3    3    0    0 -0.59210684016E+01  0.80589035571E+01  0.45870843118E+02  0.46948261163E+02  0.51100000000E-03 0. -1.
<mgrwt>
<rscale>  0 0.20001190E+02</rscale>
<asrwt>0</asrwt>
<pdfrwt beam="1">  1        4 0.14162054E-01 0.20001190E+02</pdfrwt>
<pdfrwt beam="2">  1       -4 0.16714705E-03 0.20001190E+02</pdfrwt>
<totfact> 0.99999109E+05</totfact>
</mgrwt>
</event>
<event>
 4    1  0.1373717E-006  0.2018063E+02  0.7818608E-02  0.1741760E+00
          4   -1    0    0  501    0  0.00000000000E+00  0.00000000000E+00  0.78566278587E+01  0.79839214244E+01  0.14200000000E+01 0. -1.
         -4   -1    0    0    0  501 -0.00000000000E+00 -0.00000000000E+00 -0.12687700150E+02  0.12766915646E+02  0.14200000000E+01 0.  1.
        -11    1    1    2    0    0  0.48029899730E-01  0.10034313717E+02 -0.35060372711E+01  0.10629301776E+02  0.51100000000E-03 0. -1.
         11    1    1    2    0    0 -0.48029899730E-01 -0.10034313717E+02 -0.13250350203E+01  0.10121535294E+02  0.51100000000E-03 0.  1.
<mgrwt>
<rscale>  0 0.20180634E+02</rscale>
<asrwt>0</asrwt>
<pdfrwt beam="1">  1        4 0.12245973E-02 0.20180634E+02</pdfrwt>
<pdfrwt beam="2">  1       -4 0.19678392E-02 0.20180634E+02</pdfrwt>
<totfact> 0.12733416E+06</totfact>
</mgrwt>
</event>
<event>
 5    1  0.1154861E-006  0.2000230E+02  0.7818608E-02  0.1745282E+00
          4   -1    0    0  501    0  0.00000000000E+00  0.00000000000E+00  0.48842245205E+02  0.48862882812E+02  0.14200000000E+01 0.  1.
         -4   -1    0    0    0  501 -0.00000000000E+00 -0.00000000000E+00 -0.17780339309E+01  0.22754789956E+01  0.14200000000E+01 0. -1.
       1023    2    1    2    0    0  0.00000000000E+00  0.00000000000E+00  0.47064211274E+02  0.51138361807E+02  0.20002301504E+02 0.  0.
        -11    1    3    3    0    0  0.22108772602E+01 -0.97535959960E+01  0.23657432181E+02  0.25684522786E+02  0.51100000000E-03 0.  1.
         11    1    3    3    0    0 -0.22108772602E+01  0.97535959960E+01  0.23406779093E+02  0.25453839021E+02  0.51100000000E-03 0. -1.
<mgrwt>
<rscale>  0 0.20002302E+02</rscale>
<asrwt>0</asrwt>
<pdfrwt beam="1">  1        4 0.75540450E-02 0.20002302E+02</pdfrwt>
<pdfrwt beam="2">  1       -4 0.31339616E-03 0.20002302E+02</pdfrwt>
<totfact> 0.11469943E+06</totfact>
</mgrwt>
</event>
<event>
 5    1  0.1154861E-006  0.2000028E+02  0.7818608E-02  0.1745322E+00
          4   -1    0    0  501    0  0.00000000000E+00  0.00000000000E+00  0.18631885729E+02  0.18685918918E+02  0.14200000000E+01 0. -1.
         -4   -1    0    0    0  501 -0.00000000000E+00 -0.00000000000E+00 -0.52103349561E+01  0.54003694646E+01  0.14200000000E+01 0.  1.
       1023    2    1    2    0    0  0.00000000000E+00  0.00000000000E+00  0.13421550773E+02  0.24086288382E+02  0.20000281571E+02 0.  0.
        -11    1    3    3    0    0 -0.35112887654E+01  0.93633844667E+01  0.67425925355E+01  0.12060873593E+02  0.51100000000E-03 0. -1.
         11    1    3    3    0    0  0.35112887654E+01 -0.93633844667E+01  0.66789582370E+01  0.12025414789E+02  0.51100000000E-03 0.  1.
<mgrwt>
<rscale>  0 0.20000282E+02</rscale>
<asrwt>0</asrwt>
<pdfrwt beam="1">  1        4 0.28852185E-02 0.20000282E+02</pdfrwt>
<pdfrwt beam="2">  1       -4 0.82036441E-03 0.20000282E+02</pdfrwt>
<totfact> 0.12776528E+06</totfact>
</mgrwt>
</event>
<event>
 5    1  0.1154861E-006  0.2000698E+02  0.7818608E-02  0.1745189E+00
         -4   -1    0    0    0  501 -0.00000000000E+00  0.00000000000E+00  0.43488878886E+02  0.43512055649E+02  0.14200000000E+01 0.  1.
          4   -1    0    0  501    0  0.00000000000E+00 -0.00000000000E+00 -0.20558271852E+01  0.24985646711E+01  0.14200000000E+01 0. -1.
       1023    2    1    2    0    0  0.00000000000E+00  0.00000000000E+00  0.41433051701E+02  0.46010620320E+02  0.20006984005E+02 0.  0.
        -11    1    3    3    0    0  0.99464134187E+01 -0.10625041840E+01  0.20944151785E+02  0.23210289729E+02  0.51100000000E-03 0. -1.
         11    1    3    3    0    0 -0.99464134187E+01  0.10625041840E+01  0.20488899916E+02  0.22800330591E+02  0.51100000000E-03 0.  1.
<mgrwt>
<rscale>  0 0.20006984E+02</rscale>
<asrwt>0</asrwt>
<pdfrwt beam="2">  1        4 0.35212070E-03 0.20006984E+02</pdfrwt>
<pdfrwt beam="1">  1       -4 0.67264356E-02 0.20006984E+02</pdfrwt>
<totfact> 0.11683108E+06</totfact>
</mgrwt>
</event>
<event>
 5    1  0.1154861E-006  0.2000795E+02  0.7818608E-02  0.1745170E+00
          4   -1    0    0  501    0  0.00000000000E+00  0.00000000000E+00  0.62076090726E+02  0.62092329959E+02  0.14200000000E+01 0. -1.
         -4   -1    0    0    0  501 -0.00000000000E+00 -0.00000000000E+00 -0.12798067537E+01  0.19116237409E+01  0.14200000000E+01 0.  1.
       1023    2    1    2    0    0  0.00000000000E+00  0.00000000000E+00  0.60796283972E+02  0.64003953700E+02  0.20007947033E+02 0.  0.
        -11    1    3    3    0    0 -0.13605799217E+00 -0.10002709552E+02  0.30661460445E+02  0.32252098646E+02  0.51100000000E-03 0. -1.
         11    1    3    3    0    0  0.13605799217E+00  0.10002709552E+02  0.30134823526E+02  0.31751855054E+02  0.51100000000E-03 0.  1.
<mgrwt>
<rscale>  0 0.20007947E+02</rscale>
<asrwt>0</asrwt>
<pdfrwt beam="1">  1        4 0.96000175E-02 0.20007947E+02</pdfrwt>
<pdfrwt beam="2">  1       -4 0.24674385E-03 0.20007947E+02</pdfrwt>
<totfact> 0.10959005E+06</totfact>
</mgrwt>
</event>
<event>
 5    1  0.1154861E-006  0.2000032E+02  0.7818608E-02  0.1745322E+00
          4   -1    0    0  501    0  0.00000000000E+00  0.00000000000E+00  0.20943504628E+02  0.20991588461E+02  0.14200000000E+01 0. -1.
         -4   -1    0    0    0  501 -0.00000000000E+00 -0.00000000000E+00 -0.46144488200E+01  0.48279952270E+01  0.14200000000E+01 0.  1.
       1023    2    1    2    0    0  0.00000000000E+00  0.00000000000E+00  0.16329055808E+02  0.25819583688E+02  0.20000320953E+02 0.  0.
        -11    1    3    3    0    0  0.99995808820E+01  0.10308368387E+00  0.82046356538E+01  0.12935157151E+02  0.51100000000E-03 0.  1.
         11    1    3    3    0    0 -0.99995808820E+01 -0.10308368387E+00  0.81244201543E+01  0.12884426536E+02  0.51100000000E-03 0. -1.
<mgrwt>
<rscale>  0 0.20000321E+02</rscale>
<asrwt>0</asrwt>
<pdfrwt beam="1">  1        4 0.32422030E-02 0.20000321E+02</pdfrwt>
<pdfrwt beam="2">  1       -4 0.73004062E-03 0.20000321E+02</pdfrwt>
<totfact> 0.12679698E+06</totfact>
</mgrwt>
</event>
<event>
 5    1  0.1154861E-006  0.2000080E+02  0.7818608E-02  0.1745312E+00
          4   -1    0    0  501    0  0.00000000000E+00  0.00000000000E+00  0.94102228497E+02  0.94112941768E+02  0.14200000000E+01 0. -1.
         -4   -1    0    0    0  501 -0.00000000000E+00 -0.00000000000E+00 -0.57275627240E+00  0.15311596088E+01  0.14200000000E+01 0.  1.
       1023    2    1    2    0    0  0.00000000000E+00  0.00000000000E+00  0.93529472225E+02  0.95644101377E+02  0.20000798820E+02 0.  0.
        -11    1    3    3    0    0 -0.92834400974E+01  0.37180927105E+01  0.46950845030E+02  0.48004044858E+02  0.51100000000E-03 0.  1.
         11    1    3    3    0    0  0.92834400974E+01 -0.37180927105E+01  0.46578627195E+02  0.47640056518E+02  0.51100000000E-03 0. -1.
<mgrwt>
<rscale>  0 0.20000799E+02</rscale>
<asrwt>0</asrwt>
<pdfrwt beam="1">  1        4 0.14551823E-01 0.20000799E+02</pdfrwt>
<pdfrwt beam="2">  1       -4 0.16266367E-03 0.20000799E+02</pdfrwt>
<totfact> 0.99262869E+05</totfact>
</mgrwt>
</event>
<event>
 5    1  0.1154861E-006  0.2000048E+02  0.7818608E-02  0.1745318E+00
         -4   -1    0    0    0  501 -0.00000000000E+00  0.00000000000E+00  0.50044817670E+00  0.15056056514E+01  0.14200000000E+01 0.  1.
          4   -1    0    0  501    0  0.00000000000E+00 -0.00000000000E+00 -0.98690218922E+02  0.98700434198E+02  0.14200000000E+01 0. -1.
       1023    2    1    2    0    0  0.00000000000E+00  0.00000000000E+00 -0.98189770746E+02  0.10020603985E+03  0.20000483576E+02 0.  0.
        -11    1    3    3    0    0  0.95772774224E+00 -0.99542139123E+01 -0.48919993422E+02  0.49931647016E+02  0.51100000000E-03 0. -1.
         11    1    3    3    0    0 -0.95772774224E+00  0.99542139123E+01 -0.49269777324E+02  0.50274392834E+02  0.51100000000E-03 0.  1.
<mgrwt>
<rscale>  0 0.20000484E+02</rscale>
<asrwt>0</asrwt>
<pdfrwt beam="2">  1        4 0.15261208E-01 0.20000484E+02</pdfrwt>
<pdfrwt beam="1">  1       -4 0.15509770E-03 0.20000484E+02</pdfrwt>
<totfact> 0.97949145E+05</totfact>
</mgrwt>
</event>
<event>
 5    1  0.1154861E-006  0.2000136E+02  0.7818608E-02  0.1745301E+00
         -4   -1    0    0    0  501 -0.00000000000E+00  0.00000000000E+00  0.11843980966E+01  0.18491075824E+01  0.14200000000E+01 0.  1.
          4   -1    0    0  501    0  0.00000000000E+00 -0.00000000000E+00 -0.65265138136E+02  0.65280584065E+02  0.14200000000E+01 0. -1.
       1023    2    1    2    0    0  0.00000000000E+00  0.00000000000E+00 -0.64080740040E+02  0.67129691648E+02  0.20001356372E+02 0.  0.
        -11    1    3    3    0    0 -0.99707778795E+01  0.77257313328E+00 -0.32096845862E+02  0.33618756600E+02  0.51100000000E-03 0.  1.
         11    1    3    3    0    0  0.99707778795E+01 -0.77257313328E+00 -0.31983894178E+02  0.33510935048E+02  0.51100000000E-03 0. -1.
<mgrwt>
<rscale>  0 0.20001356E+02</rscale>
<asrwt>0</asrwt>
<pdfrwt beam="2">  1        4 0.10093108E-01 0.20001356E+02</pdfrwt>
<pdfrwt beam="1">  1       -4 0.23453479E-03 0.20001356E+02</pdfrwt>
<totfact> 0.10851842E+06</totfact>
</mgrwt>
</event>
<event>
 5    1  0.1154861E-006  0.2000041E+02  0.7818608E-02  0.1745320E+00
         -4   -1    0    0    0  501 -0.00000000000E+00  0.00000000000E+00  0.68905994094E+02  0.68920624070E+02  0.14200000000E+01 0. -1.
          4   -1    0    0  501    0  0.00000000000E+00 -0.00000000000E+00 -0.10855668808E+01  0.17874158589E+01  0.14200000000E+01 0.  1.
       1023    2    1    2    0    0  0.00000000000E+00  0.00000000000E+00  0.67820427214E+02  0.70708039928E+02  0.20000414073E+02 0.  0.
        -11    1    3    3    0    0  0.72820711413E+01 -0.68538727791E+01  0.33900007934E+02  0.35344231077E+02  0.51100000000E-03 0. -1.
         11    1    3    3    0    0 -0.72820711413E+01  0.68538727791E+01  0.33920419279E+02  0.35363808852E+02  0.51100000000E-03 0.  1.
<mgrwt>
<rscale>  0 0.20000414E+02</rscale>
<asrwt>0</asrwt>
<pdfrwt beam="2">  1        4 0.22212411E-03 0.20000414E+02</pdfrwt>
<pdfrwt beam="1">  1       -4 0.10656033E-01 0.20000414E+02</pdfrwt>
<totfact> 0.10725430E+06</totfact>
</mgrwt>
</event>
<event>
 5    1  0.1154861E-006  0.2000175E+02  0.7818608E-02  0.1745293E+00
          4   -1    0    0  501    0  0.00000000000E+00  0.00000000000E+00  0.21077658404E+02  0.21125436890E+02  0.14200000000E+01 0. -1.
         -4   -1    0    0    0  501 -0.00000000000E+00 -0.00000000000E+00 -0.45844788664E+01  0.47993589651E+01  0.14200000000E+01 0.  1.
       1023    2    1    2    0    0  0.00000000000E+00  0.00000000000E+00  0.16493179538E+02  0.25924795855E+02  0.20001751645E+02 0.  0.
        -11    1    3    3    0    0 -0.94819499255E+01 -0.31785406406E+01  0.81379780794E+01  0.12893299906E+02  0.51100000000E-03 0. -1.
         11    1    3    3    0    0  0.94819499255E+01  0.31785406406E+01  0.83552014582E+01  0.13031495949E+02  0.51100000000E-03 0.  1.
<mgrwt>
<rscale>  0 0.20001752E+02</rscale>
<asrwt>0</asrwt>
<pdfrwt beam="1">  1        4 0.32629213E-02 0.20001752E+02</pdfrwt>
<pdfrwt beam="2">  1       -4 0.72550893E-03 0.20001752E+02</pdfrwt>
<totfact> 0.12672051E+06</totfact>
</mgrwt>
</event>
<event>
 5    1  0.1154861E-006  0.2000042E+02  0.7818608E-02  0.1745320E+00
         -4   -1    0    0    0  501 -0.00000000000E+00  0.00000000000E+00  0.24865634802E+01  0.28634590867E+01  0.14200000000E+01 0.  1.
          4   -1    0    0  501    0  0.00000000000E+00 -0.00000000000E+00 -0.36993100365E+02  0.37020344064E+02  0.14200000000E+01 0. -1.
       1023    2    1    2    0    0  0.00000000000E+00  0.00000000000E+00 -0.34506536885E+02  0.39883803151E+02  0.20000416645E+02 0.  0.
        -11    1    3    3    0    0  0.63953135699E+01  0.76879193557E+01 -0.17242992222E+02  0.19933010829E+02  0.51100000000E-03 0. -1.
         11    1    3    3    0    0 -0.63953135699E+01 -0.76879193557E+01 -0.17263544663E+02  0.19950792321E+02  0.51100000000E-03 0.  1.
<mgrwt>
<rscale>  0 0.20000417E+02</rscale>
<asrwt>0</asrwt>
<pdfrwt beam="2">  1        4 0.57223335E-02 0.20000417E+02</pdfrwt>
<pdfrwt beam="1">  1       -4 0.41363589E-03 0.20000417E+02</pdfrwt>
<totfact> 0.11967516E+06</totfact>
</mgrwt>
</event>
<event>
 5    1  0.1154861E-006  0.2000013E+02  0.7818608E-02  0.1745325E+00
          4   -1    0    0  501    0  0.00000000000E+00  0.00000000000E+00  0.20547132354E+01  0.24976481897E+01  0.14200000000E+01 0.  1.
         -4   -1    0    0    0  501 -0.00000000000E+00 -0.00000000000E+00 -0.43478169403E+02  0.43501351872E+02  0.14200000000E+01 0. -1.
       1023    2    1    2    0    0  0.00000000000E+00  0.00000000000E+00 -0.41423456168E+02  0.45999000061E+02  0.20000132143E+02 0.  0.
        -11    1    3    3    0    0  0.59048019424E+01  0.80706005617E+01 -0.20726592830E+02  0.23012886173E+02  0.51100000000E-03 0.  1.
         11    1    3    3    0    0 -0.59048019424E+01 -0.80706005617E+01 -0.20696863338E+02  0.22986113888E+02  0.51100000000E-03 0. -1.
<mgrwt>
<rscale>  0 0.20000132E+02</rscale>
<asrwt>0</asrwt>
<pdfrwt beam="1">  1        4 0.35196495E-03 0.20000132E+02</pdfrwt>
<pdfrwt beam="2">  1       -4 0.67248037E-02 0.20000132E+02</pdfrwt>
<totfact> 0.11691703E+06</totfact>
</mgrwt>
</event>
<event>
 4    1  0.1154861E-006  0.2003115E+02  0.7818608E-02  0.1744709E+00
         -4   -1    0    0    0  501 -0.00000000000E+00  0.00000000000E+00  0.19116248351E+02  0.19168916272E+02  0.14200000000E+01 0. -1.
          4   -1    0    0  501    0  0.00000000000E+00 -0.00000000000E+00 -0.50902639776E+01  0.52846179958E+01  0.14200000000E+01 0.  1.
        -11    1    1    2    0    0  0.42845951176E+01 -0.90514259146E+01  0.72087295319E+01  0.12339037569E+02  0.51100000000E-03 0.  1.
         11    1    1    2    0    0 -0.42845951176E+01  0.90514259146E+01  0.68172548417E+01  0.12114496698E+02  0.51100000000E-03 0. -1.
<mgrwt>
<rscale>  0 0.20031153E+02</rscale>
<asrwt>0</asrwt>
<pdfrwt beam="2">  1        4 0.80211920E-03 0.20031153E+02</pdfrwt>
<pdfrwt beam="1">  1       -4 0.29599630E-02 0.20031153E+02</pdfrwt>
<totfact> 0.12715828E+06</totfact>
</mgrwt>
</event>
<event>
 4    1  0.1207070E-006  0.2135673E+02  0.7818608E-02  0.1719621E+00
          4   -1    0    0  501    0  0.00000000000E+00  0.00000000000E+00  0.13959079892E+02  0.14031119394E+02  0.14200000000E+01 0. -1.
         -4   -1    0    0    0  501 -0.00000000000E+00 -0.00000000000E+00 -0.80130450197E+01  0.81378922632E+01  0.14200000000E+01 0.  1.
        -11    1    1    2    0    0 -0.52178635146E+01 -0.92580243365E+01  0.40569171286E+01  0.11375222684E+02  0.51100000000E-03 0. -1.
         11    1    1    2    0    0  0.52178635146E+01  0.92580243365E+01  0.18891177442E+01  0.10793788973E+02  0.51100000000E-03 0.  1.
<mgrwt>
<rscale>  0 0.21356726E+02</rscale>
<asrwt>0</asrwt>
<pdfrwt beam="1">  1        4 0.21626959E-02 0.21356726E+02</pdfrwt>
<pdfrwt beam="2">  1       -4 0.12479213E-02 0.21356726E+02</pdfrwt>
<totfact> 0.11252249E+06</totfact>
</mgrwt>
</event>
<event>
 5    1  0.1154861E-006  0.2000080E+02  0.7818608E-02  0.1745312E+00
         -4   -1    0    0    0  501 -0.00000000000E+00  0.00000000000E+00  0.62870311503E+02  0.62886345644E+02  0.14200000000E+01 0. -1.
          4   -1    0    0  501    0  0.00000000000E+00 -0.00000000000E+00 -0.12542457028E+01  0.18946061023E+01  0.14200000000E+01 0.  1.
       1023    2    1    2    0    0  0.00000000000E+00  0.00000000000E+00  0.61616065800E+02  0.64780951747E+02  0.20000803596E+02 0.  0.
        -11    1    3    3    0    0  0.59592148463E+01 -0.80308904606E+01  0.30886884903E+02  0.32465475546E+02  0.51100000000E-03 0. -1.
         11    1    3    3    0    0 -0.59592148463E+01  0.80308904606E+01  0.30729180898E+02  0.32315476201E+02  0.51100000000E-03 0.  1.
<mgrwt>
<rscale>  0 0.20000804E+02</rscale>
<asrwt>0</asrwt>
<pdfrwt beam="2">  1        4 0.24345281E-03 0.20000804E+02</pdfrwt>
<pdfrwt beam="1">  1       -4 0.97228458E-02 0.20000804E+02</pdfrwt>
<totfact> 0.10938148E+06</totfact>
</mgrwt>
</event>
<event>
 4    1  0.1154861E-006  0.2022870E+02  0.7818608E-02  0.1740818E+00
          4   -1    0    0  501    0  0.00000000000E+00  0.00000000000E+00  0.24066893223E+01  0.27943789102E+01  0.14200000000E+01 0. -1.
         -4   -1    0    0    0  501 -0.00000000000E+00 -0.00000000000E+00 -0.38936520726E+02  0.38962405550E+02  0.14200000000E+01 0.  1.
        -11    1    1    2    0    0  0.20358083608E+01  0.99071000498E+01 -0.18119402834E+02  0.20751094101E+02  0.51100000000E-03 0.  1.
         11    1    1    2    0    0 -0.20358083608E+01 -0.99071000498E+01 -0.18410428570E+02  0.21005690359E+02  0.51100000000E-03 0. -1.
<mgrwt>
<rscale>  0 0.20228704E+02</rscale>
<asrwt>0</asrwt>
<pdfrwt beam="1">  1        4 0.40207334E-03 0.20228704E+02</pdfrwt>
<pdfrwt beam="2">  1       -4 0.60220469E-02 0.20228704E+02</pdfrwt>
<totfact> 0.11611035E+06</totfact>
</mgrwt>
</event>
<event>
 5    1  0.1183411E-006  0.2000114E+02  0.7818608E-02  0.1745305E+00
         -4   -1    0    0    0  501 -0.00000000000E+00  0.00000000000E+00  0.37515901306E+02  0.37542765625E+02  0.14200000000E+01 0.  1.
          4   -1    0    0  501    0  0.00000000000E+00 -0.00000000000E+00 -0.24468586661E+01  0.28290488387E+01  0.14200000000E+01 0. -1.
       1023    2    1    2    0    0  0.00000000000E+00  0.00000000000E+00  0.35069042640E+02  0.40371814464E+02  0.20001141254E+02 0.  0.
        -11    1    3    3    0    0 -0.82783936523E+00 -0.99661450209E+01  0.17625867276E+02  0.20265255046E+02  0.51100000000E-03 0. -1.
         11    1    3    3    0    0  0.82783936523E+00  0.99661450209E+01  0.17443175364E+02  0.20106559418E+02  0.51100000000E-03 0.  1.
<mgrwt>
<rscale>  0 0.20001141E+02</rscale>
<asrwt>0</asrwt>
<pdfrwt beam="2">  1        4 0.40790555E-03 0.20001141E+02</pdfrwt>
<pdfrwt beam="1">  1       -4 0.58031426E-02 0.20001141E+02</pdfrwt>
<totfact> 0.11943959E+06</totfact>
</mgrwt>
</event>
<event>
 5    1  0.1200121E-006  0.2000117E+02  0.7818608E-02  0.1745305E+00
          4   -1    0    0  501    0  0.00000000000E+00  0.00000000000E+00  0.21636874803E+02  0.21683421115E+02  0.14200000000E+01 0. -1.
         -4   -1    0    0    0  501 -0.00000000000E+00 -0.00000000000E+00 -0.44603596190E+01  0.46809409237E+01  0.14200000000E+01 0.  1.
       1023    2    1    2    0    0  0.00000000000E+00  0.00000000000E+00  0.17176515184E+02  0.26364362039E+02  0.20001172761E+02 0.  0.
        -11    1    3    3    0    0 -0.12003935244E+01  0.99282739462E+01  0.86049065260E+01  0.13193027884E+02  0.51100000000E-03 0. -1.
         11    1    3    3    0    0  0.12003935244E+01 -0.99282739462E+01  0.85716086583E+01  0.13171334155E+02  0.51100000000E-03 0.  1.
<mgrwt>
<rscale>  0 0.20001173E+02</rscale>
<asrwt>0</asrwt>
<pdfrwt beam="1">  1        4 0.33492981E-02 0.20001173E+02</pdfrwt>
<pdfrwt beam="2">  1       -4 0.70675747E-03 0.20001173E+02</pdfrwt>
<totfact> 0.12648652E+06</totfact>
</mgrwt>
</event>
<event>
 5    1  0.1154861E-006  0.2001001E+02  0.7818608E-02  0.1745129E+00
          4   -1    0    0  501    0  0.00000000000E+00  0.00000000000E+00  0.95706485469E+01  0.96754180069E+01  0.14200000000E+01 0.  1.
         -4   -1    0    0    0  501 -0.00000000000E+00 -0.00000000000E+00 -0.10248148064E+02  0.10346059093E+02  0.14200000000E+01 0. -1.
       1023    2    1    2    0    0  0.00000000000E+00  0.00000000000E+00 -0.67749951760E+00  0.20021477100E+02  0.20010010986E+02 0.  0.
        -11    1    3    3    0    0  0.17538177139E+01 -0.98475072471E+01 -0.11310091559E+00  0.10003102900E+02  0.51100000000E-03 0. -1.
         11    1    3    3    0    0 -0.17538177139E+01  0.98475072471E+01 -0.56439860201E+00  0.10018374199E+02  0.51100000000E-03 0.  1.
<mgrwt>
<rscale>  0 0.20010011E+02</rscale>
<asrwt>0</asrwt>
<pdfrwt beam="1">  1        4 0.14879983E-02 0.20010011E+02</pdfrwt>
<pdfrwt beam="2">  1       -4 0.15922290E-02 0.20010011E+02</pdfrwt>
<totfact> 0.12999479E+06</totfact>
</mgrwt>
</event>
<event>
 4    1  0.1154861E-006  0.2001422E+02  0.7818608E-02  0.1745045E+00
          4   -1    0    0  501    0  0.00000000000E+00  0.00000000000E+00  0.84497502949E+01  0.85682366941E+01  0.14200000000E+01 0. -1.
         -4   -1    0    0    0  501 -0.00000000000E+00 -0.00000000000E+00 -0.11606932810E+02  0.11693472079E+02  0.14200000000E+01 0.  1.
        -11    1    1    2    0    0  0.98277221611E+01 -0.18559150719E+01 -0.19199797194E+01  0.10184049588E+02  0.51100000000E-03 0. -1.
         11    1    1    2    0    0 -0.98277221611E+01  0.18559150719E+01 -0.12372027961E+01  0.10077659185E+02  0.51100000000E-03 0.  1.
<mgrwt>
<rscale>  0 0.20014221E+02</rscale>
<asrwt>0</asrwt>
<pdfrwt beam="1">  1        4 0.13157328E-02 0.20014221E+02</pdfrwt>
<pdfrwt beam="2">  1       -4 0.18014532E-02 0.20014221E+02</pdfrwt>
<totfact> 0.12979620E+06</totfact>
</mgrwt>
</event>
<event>
 5    1  0.1189008E-006  0.2000092E+02  0.7818608E-02  0.1745310E+00
          4   -1    0    0  501    0  0.00000000000E+00  0.00000000000E+00  0.69074934195E+01  0.70519405372E+01  0.14200000000E+01 0. -1.
         -4   -1    0    0    0  501 -0.00000000000E+00 -0.00000000000E+00 -0.14148196356E+02  0.14219277764E+02  0.14200000000E+01 0.  1.
       1023    2    1    2    0    0  0.00000000000E+00  0.00000000000E+00 -0.72407029367E+01  0.21271218301E+02  0.20000923704E+02 0.  0.
        -11    1    3    3    0    0 -0.66740039379E+01 -0.74476008218E+01 -0.36333952254E+01  0.10640049233E+02  0.51100000000E-03 0.  1.
         11    1    3    3    0    0  0.66740039379E+01  0.74476008218E+01 -0.36073077113E+01  0.10631169068E+02  0.51100000000E-03 0. -1.
<mgrwt>
<rscale>  0 0.20000924E+02</rscale>
<asrwt>0</asrwt>
<pdfrwt beam="1">  1        4 0.10792704E-02 0.20000924E+02</pdfrwt>
<pdfrwt beam="2">  1       -4 0.21932247E-02 0.20000924E+02</pdfrwt>
<totfact> 0.12937560E+06</totfact>
</mgrwt>
</event>
<event>
 5    1  0.1154861E-006  0.2000235E+02  0.7818608E-02  0.1745281E+00
         -4   -1    0    0    0  501 -0.00000000000E+00  0.00000000000E+00  0.18600396352E+02  0.18654520751E+02  0.14200000000E+01 0. -1.
          4   -1    0    0  501    0  0.00000000000E+00 -0.00000000000E+00 -0.52205801262E+01  0.54102547864E+01  0.14200000000E+01 0.  1.
       1023    2    1    2    0    0  0.00000000000E+00  0.00000000000E+00  0.13379816226E+02  0.24064775538E+02  0.20002348348E+02 0.  0.
        -11    1    3    3    0    0 -0.94754097763E+01 -0.31999621033E+01  0.67119844457E+01  0.12044662027E+02  0.51100000000E-03 0. -1.
         11    1    3    3    0    0  0.94754097763E+01  0.31999621033E+01  0.66678317804E+01  0.12020113510E+02  0.51100000000E-03 0.  1.
<mgrwt>
<rscale>  0 0.20002348E+02</rscale>
<asrwt>0</asrwt>
<pdfrwt beam="2">  1        4 0.82191994E-03 0.20002348E+02</pdfrwt>
<pdfrwt beam="1">  1       -4 0.28803532E-02 0.20002348E+02</pdfrwt>
<totfact> 0.12775051E+06</totfact>
</mgrwt>
</event>
<event>
 5    1  0.1215048E-006  0.2000107E+02  0.7818608E-02  0.1745307E+00
          4   -1    0    0  501    0  0.00000000000E+00  0.00000000000E+00  0.12908390990E+02  0.12986260353E+02  0.14200000000E+01 0. -1.
         -4   -1    0    0    0  501 -0.00000000000E+00 -0.00000000000E+00 -0.75804320014E+01  0.77122856099E+01  0.14200000000E+01 0.  1.
       1023    2    1    2    0    0  0.00000000000E+00  0.00000000000E+00  0.53279589888E+01  0.20698545963E+02  0.20001066421E+02 0.  0.
        -11    1    3    3    0    0 -0.21576557217E+01 -0.97644571309E+01  0.25576191943E+01  0.10321895053E+02  0.51100000000E-03 0.  1.
         11    1    3    3    0    0  0.21576557217E+01  0.97644571309E+01  0.27703397945E+01  0.10376650910E+02  0.51100000000E-03 0. -1.
<mgrwt>
<rscale>  0 0.20001066E+02</rscale>
<asrwt>0</asrwt>
<pdfrwt beam="1">  1        4 0.20020388E-02 0.20001066E+02</pdfrwt>
<pdfrwt beam="2">  1       -4 0.11823529E-02 0.20001066E+02</pdfrwt>
<totfact> 0.12971175E+06</totfact>
</mgrwt>
</event>
<event>
 5    1  0.1154861E-006  0.2000033E+02  0.7818608E-02  0.1745321E+00
          4   -1    0    0  501    0  0.00000000000E+00  0.00000000000E+00  0.54499862945E+02  0.54518358936E+02  0.14200000000E+01 0.  1.
         -4   -1    0    0    0  501 -0.00000000000E+00 -0.00000000000E+00 -0.15384972462E+01  0.20936508249E+01  0.14200000000E+01 0. -1.
       1023    2    1    2    0    0  0.00000000000E+00  0.00000000000E+00  0.52961365699E+02  0.56612009761E+02  0.20000334808E+02 0.  0.
        -11    1    3    3    0    0 -0.73370105387E+01  0.67949704331E+01  0.26483535748E+02  0.28308673809E+02  0.51100000000E-03 0. -1.
         11    1    3    3    0    0  0.73370105387E+01 -0.67949704331E+01  0.26477829951E+02  0.28303335952E+02  0.51100000000E-03 0.  1.
<mgrwt>
<rscale>  0 0.20000335E+02</rscale>
<asrwt>0</asrwt>
<pdfrwt beam="1">  1        4 0.84287211E-02 0.20000335E+02</pdfrwt>
<pdfrwt beam="2">  1       -4 0.28081878E-03 0.20000335E+02</pdfrwt>
<totfact> 0.11250361E+06</totfact>
</mgrwt>
</event>
<event>
 4    1  0.1154861E-006  0.2001262E+02  0.7818608E-02  0.1745077E+00
         -4   -1    0    0    0  501 -0.00000000000E+00  0.00000000000E+00  0.72025495250E+00  0.15922208379E+01  0.14200000000E+01 0. -1.
          4   -1    0    0  501    0  0.00000000000E+00 -0.00000000000E+00 -0.85716497321E+02  0.85728258544E+02  0.14200000000E+01 0.  1.
        -11    1    1    2    0    0  0.86621543884E+01  0.50056744198E+01 -0.41664172679E+02  0.42848488659E+02  0.51100000000E-03 0. -1.
         11    1    1    2    0    0 -0.86621543884E+01 -0.50056744198E+01 -0.43332069689E+02  0.44471990723E+02  0.51100000000E-03 0.  1.
<mgrwt>
<rscale>  0 0.20012619E+02</rscale>
<asrwt>0</asrwt>
<pdfrwt beam="2">  1        4 0.13255127E-01 0.20012619E+02</pdfrwt>
<pdfrwt beam="1">  1       -4 0.17878753E-03 0.20012619E+02</pdfrwt>
<totfact> 0.10165263E+06</totfact>
</mgrwt>
</event>
<event>
 5    1  0.1176041E-006  0.2000194E+02  0.7818608E-02  0.1745290E+00
          4   -1    0    0  501    0  0.00000000000E+00  0.00000000000E+00  0.95024693687E+01  0.96079823118E+01  0.14200000000E+01 0. -1.
         -4   -1    0    0    0  501 -0.00000000000E+00 -0.00000000000E+00 -0.10313073090E+02  0.10410373508E+02  0.14200000000E+01 0.  1.
       1023    2    1    2    0    0  0.00000000000E+00  0.00000000000E+00 -0.81060372159E+00  0.20018355819E+02  0.20001937189E+02 0.  0.
        -11    1    3    3    0    0  0.63376086622E+01  0.77364061832E+01 -0.35934706043E+00  0.10007317061E+02  0.51100000000E-03 0.  1.
         11    1    3    3    0    0 -0.63376086622E+01 -0.77364061832E+01 -0.45125666116E+00  0.10011038758E+02  0.51100000000E-03 0. -1.
<mgrwt>
<rscale>  0 0.20001937E+02</rscale>
<asrwt>0</asrwt>
<pdfrwt beam="1">  1        4 0.14775194E-02 0.20001937E+02</pdfrwt>
<pdfrwt beam="2">  1       -4 0.16022276E-02 0.20001937E+02</pdfrwt>
<totfact> 0.13010382E+06</totfact>
</mgrwt>
</event>
<event>
 5    1  0.1183058E-006  0.2000081E+02  0.7818608E-02  0.1745312E+00
          4   -1    0    0  501    0  0.00000000000E+00  0.00000000000E+00  0.29006200541E+02  0.29040937826E+02  0.14200000000E+01 0. -1.
         -4   -1    0    0    0  501 -0.00000000000E+00 -0.00000000000E+00 -0.32631389522E+01  0.35587182835E+01  0.14200000000E+01 0.  1.
       1023    2    1    2    0    0  0.00000000000E+00  0.00000000000E+00  0.25743061589E+02  0.32599656110E+02  0.20000808946E+02 0.  0.
        -11    1    3    3    0    0  0.98843935905E+01 -0.15178435667E+01  0.12960858880E+02  0.16370368014E+02  0.51100000000E-03 0.  1.
         11    1    3    3    0    0 -0.98843935905E+01  0.15178435667E+01  0.12782202709E+02  0.16229288096E+02  0.51100000000E-03 0. -1.
<mgrwt>
<rscale>  0 0.20000809E+02</rscale>
<asrwt>0</asrwt>
<pdfrwt beam="1">  1        4 0.44879013E-02 0.20000809E+02</pdfrwt>
<pdfrwt beam="2">  1       -4 0.52743035E-03 0.20000809E+02</pdfrwt>
<totfact> 0.12320938E+06</totfact>
</mgrwt>
</event>
<event>
 5    1  0.1154861E-006  0.2000093E+02  0.7818608E-02  0.1745310E+00
         -4   -1    0    0    0  501 -0.00000000000E+00  0.00000000000E+00  0.36258007667E+02  0.36285803284E+02  0.14200000000E+01 0.  1.
          4   -1    0    0  501    0  0.00000000000E+00 -0.00000000000E+00 -0.25446484767E+01  0.29140411579E+01  0.14200000000E+01 0. -1.
       1023    2    1    2    0    0  0.00000000000E+00  0.00000000000E+00  0.33713359190E+02  0.39199844442E+02  0.20000930388E+02 0.  0.
        -11    1    3    3    0    0  0.49337828027E+01  0.86983349019E+01  0.17009262999E+02  0.19731149760E+02  0.51100000000E-03 0.  1.
         11    1    3    3    0    0 -0.49337828027E+01 -0.86983349019E+01  0.16704096191E+02  0.19468694682E+02  0.51100000000E-03 0. -1.
<mgrwt>
<rscale>  0 0.20000930E+02</rscale>
<asrwt>0</asrwt>
<pdfrwt beam="2">  1        4 0.42203737E-03 0.20000930E+02</pdfrwt>
<pdfrwt beam="1">  1       -4 0.56087074E-02 0.20000930E+02</pdfrwt>
<totfact> 0.11998886E+06</totfact>
</mgrwt>
</event>
<event>
 5    1  0.1154861E-006  0.2000056E+02  0.7818608E-02  0.1745317E+00
         -4   -1    0    0    0  501 -0.00000000000E+00  0.00000000000E+00  0.10355157879E+03  0.10356131454E+03  0.14200000000E+01 0. -1.
          4   -1    0    0  501    0  0.00000000000E+00 -0.00000000000E+00 -0.42862248803E+00  0.14832792176E+01  0.14200000000E+01 0.  1.
       1023    2    1    2    0    0  0.00000000000E+00  0.00000000000E+00  0.10312295630E+03  0.10504459376E+03  0.20000564039E+02 0.  0.
        -11    1    3    3    0    0  0.75552696658E+01  0.65515998039E+01  0.51608600241E+02  0.52568556941E+02  0.51100000000E-03 0. -1.
         11    1    3    3    0    0 -0.75552696658E+01 -0.65515998039E+01  0.51514356060E+02  0.52476036819E+02  0.51100000000E-03 0.  1.
<mgrwt>
<rscale>  0 0.20000564E+02</rscale>
<asrwt>0</asrwt>
<pdfrwt beam="2">  1        4 0.14781822E-03 0.20000564E+02</pdfrwt>
<pdfrwt beam="1">  1       -4 0.16012894E-01 0.20000564E+02</pdfrwt>
<totfact> 0.96593656E+05</totfact>
</mgrwt>
</event>
<event>
 5    1  0.1154861E-006  0.2000023E+02  0.7818608E-02  0.1745323E+00
          4   -1    0    0  501    0  0.00000000000E+00  0.00000000000E+00  0.34029166801E+02  0.34058781440E+02  0.14200000000E+01 0.  1.
         -4   -1    0    0    0  501 -0.00000000000E+00 -0.00000000000E+00 -0.27343910714E+01  0.30811190388E+01  0.14200000000E+01 0. -1.
       1023    2    1    2    0    0  0.00000000000E+00  0.00000000000E+00  0.31294775730E+02  0.37139900479E+02  0.20000230489E+02 0.  0.
        -11    1    3    3    0    0 -0.94580973123E+01  0.32472649547E+01  0.15564962846E+02  0.18500497375E+02  0.51100000000E-03 0.  1.
         11    1    3    3    0    0  0.94580973123E+01 -0.32472649547E+01  0.15729812883E+02  0.18639403104E+02  0.51100000000E-03 0. -1.
<mgrwt>
<rscale>  0 0.20000230E+02</rscale>
<asrwt>0</asrwt>
<pdfrwt beam="1">  1        4 0.52642059E-02 0.20000230E+02</pdfrwt>
<pdfrwt beam="2">  1       -4 0.44962498E-03 0.20000230E+02</pdfrwt>
<totfact> 0.12097586E+06</totfact>
</mgrwt>
</event>
<event>
 5    1  0.1164705E-006  0.2000073E+02  0.7818608E-02  0.1745314E+00
          4   -1    0    0  501    0  0.00000000000E+00  0.00000000000E+00  0.48343253762E+01  0.50385614855E+01  0.14200000000E+01 0.  1.
         -4   -1    0    0    0  501 -0.00000000000E+00 -0.00000000000E+00 -0.20029078480E+02  0.20079352200E+02  0.14200000000E+01 0. -1.
       1023    2    1    2    0    0  0.00000000000E+00  0.00000000000E+00 -0.15194753104E+02  0.25117913685E+02  0.20000726637E+02 0.  0.
        -11    1    3    3    0    0  0.64624543844E+01  0.76314658370E+01 -0.75114746507E+01  0.12506991612E+02  0.51100000000E-03 0. -1.
         11    1    3    3    0    0 -0.64624543844E+01 -0.76314658370E+01 -0.76832784533E+01  0.12610922074E+02  0.51100000000E-03 0.  1.
<mgrwt>
<rscale>  0 0.20000727E+02</rscale>
<asrwt>0</asrwt>
<pdfrwt beam="1">  1        4 0.76332006E-03 0.20000727E+02</pdfrwt>
<pdfrwt beam="2">  1       -4 0.31009743E-02 0.20000727E+02</pdfrwt>
<totfact> 0.12718079E+06</totfact>
</mgrwt>
</event>
<event>
 5    1  0.1167243E-006  0.2000146E+02  0.7818608E-02  0.1745299E+00
          4   -1    0    0  501    0  0.00000000000E+00  0.00000000000E+00  0.19520735936E+01  0.24139161781E+01  0.14200000000E+01 0. -1.
         -4   -1    0    0    0  501 -0.00000000000E+00 -0.00000000000E+00 -0.45341170169E+02  0.45363400581E+02  0.14200000000E+01 0.  1.
       1023    2    1    2    0    0  0.00000000000E+00  0.00000000000E+00 -0.43389096575E+02  0.47777316759E+02  0.20001457324E+02 0.  0.
        -11    1    3    3    0    0  0.92235391558E+01  0.38642799907E+01 -0.21911368729E+02  0.24085564437E+02  0.51100000000E-03 0. -1.
         11    1    3    3    0    0 -0.92235391558E+01 -0.38642799907E+01 -0.21477727846E+02  0.23691752322E+02  0.51100000000E-03 0.  1.
<mgrwt>
<rscale>  0 0.20001457E+02</rscale>
<asrwt>0</asrwt>
<pdfrwt beam="1">  1        4 0.33755543E-03 0.20001457E+02</pdfrwt>
<pdfrwt beam="2">  1       -4 0.70128003E-02 0.20001457E+02</pdfrwt>
<totfact> 0.11613014E+06</totfact>
</mgrwt>
</event>
<event>
 5    1  0.1154861E-006  0.2000183E+02  0.7818608E-02  0.1745292E+00
          4   -1    0    0  501    0  0.00000000000E+00  0.00000000000E+00  0.44242331212E+02  0.44265113476E+02  0.14200000000E+01 0. -1.
         -4   -1    0    0    0  501 -0.00000000000E+00 -0.00000000000E+00 -0.20119515226E+01  0.24625898824E+01  0.14200000000E+01 0.  1.
       1023    2    1    2    0    0  0.00000000000E+00  0.00000000000E+00  0.42230379689E+02  0.46727703359E+02  0.20001832228E+02 0.  0.
        -11    1    3    3    0    0  0.95308283905E+01 -0.30301145808E+01  0.21129718252E+02  0.23376981795E+02  0.51100000000E-03 0. -1.
         11    1    3    3    0    0 -0.95308283905E+01  0.30301145808E+01  0.21100661438E+02  0.23350721564E+02  0.51100000000E-03 0.  1.
<mgrwt>
<rscale>  0 0.20001832E+02</rscale>
<asrwt>0</asrwt>
<pdfrwt beam="1">  1        4 0.68429284E-02 0.20001832E+02</pdfrwt>
<pdfrwt beam="2">  1       -4 0.34594803E-03 0.20001832E+02</pdfrwt>
<totfact> 0.11657926E+06</totfact>
</mgrwt>
</event>
<event>
 5    1  0.1161942E-006  0.2000059E+02  0.7818608E-02  0.1745316E+00
         -4   -1    0    0    0  501 -0.00000000000E+00  0.00000000000E+00  0.41865447897E+02  0.41889522886E+02  0.14200000000E+01 0. -1.
          4   -1    0    0  501    0  0.00000000000E+00 -0.00000000000E+00 -0.21506748068E+01  0.25771694016E+01  0.14200000000E+01 0.  1.
       1023    2    1    2    0    0  0.00000000000E+00  0.00000000000E+00  0.39714773090E+02  0.44466692288E+02  0.20000588026E+02 0.  0.
        -11    1    3    3    0    0  0.93038154389E+01 -0.36661311828E+01  0.19710238393E+02  0.22101922933E+02  0.51100000000E-03 0. -1.
         11    1    3    3    0    0 -0.93038154389E+01  0.36661311828E+01  0.20004534697E+02  0.22364769355E+02  0.51100000000E-03 0.  1.
<mgrwt>
<rscale>  0 0.20000588E+02</rscale>
<asrwt>0</asrwt>
<pdfrwt beam="2">  1        4 0.36553225E-03 0.20000588E+02</pdfrwt>
<pdfrwt beam="1">  1       -4 0.64754973E-02 0.20000588E+02</pdfrwt>
<totfact> 0.11758756E+06</totfact>
</mgrwt>
</event>
<event>
 4    1  0.1154861E-006  0.2002312E+02  0.7818608E-02  0.1744869E+00
          4   -1    0    0  501    0  0.00000000000E+00  0.00000000000E+00  0.63734933072E+01  0.65297639266E+01  0.14200000000E+01 0.  1.
         -4   -1    0    0    0  501 -0.00000000000E+00 -0.00000000000E+00 -0.15346368425E+02  0.15411924728E+02  0.14200000000E+01 0. -1.
        -11    1    1    2    0    0 -0.99557328359E+01  0.10206336953E+01 -0.41903768910E+01  0.10849772725E+02  0.51100000000E-03 0. -1.
         11    1    1    2    0    0  0.99557328359E+01 -0.10206336953E+01 -0.47824982267E+01  0.11091915930E+02  0.51100000000E-03 0.  1.
<mgrwt>
<rscale>  0 0.20023117E+02</rscale>
<asrwt>0</asrwt>
<pdfrwt beam="1">  1        4 0.99760105E-03 0.20023117E+02</pdfrwt>
<pdfrwt beam="2">  1       -4 0.23780434E-02 0.20023117E+02</pdfrwt>
<totfact> 0.12869251E+06</totfact>
</mgrwt>
</event>
<event>
 5    1  0.1154861E-006  0.2000065E+02  0.7818608E-02  0.1745315E+00
         -4   -1    0    0    0  501 -0.00000000000E+00  0.00000000000E+00  0.29301913211E+02  0.29336300343E+02  0.14200000000E+01 0.  1.
          4   -1    0    0  501    0  0.00000000000E+00 -0.00000000000E+00 -0.32271961240E+01  0.35257899573E+01  0.14200000000E+01 0. -1.
       1023    2    1    2    0    0  0.00000000000E+00  0.00000000000E+00  0.26074717087E+02  0.32862090301E+02  0.20000652683E+02 0.  0.
        -11    1    3    3    0    0 -0.75871697012E+01  0.65143982781E+01  0.13141244027E+02  0.16513474009E+02  0.51100000000E-03 0.  1.
         11    1    3    3    0    0  0.75871697012E+01 -0.65143982781E+01  0.12933473060E+02  0.16348616292E+02  0.51100000000E-03 0. -1.
<mgrwt>
<rscale>  0 0.20000653E+02</rscale>
<asrwt>0</asrwt>
<pdfrwt beam="2">  1        4 0.52210564E-03 0.20000653E+02</pdfrwt>
<pdfrwt beam="1">  1       -4 0.45336005E-02 0.20000653E+02</pdfrwt>
<totfact> 0.12307850E+06</totfact>
</mgrwt>
</event>
<event>
 5    1  0.1194390E-006  0.2000120E+02  0.7818608E-02  0.1745304E+00
          4   -1    0    0  501    0  0.00000000000E+00  0.00000000000E+00  0.30453175034E+01  0.33601128993E+01  0.14200000000E+01 0. -1.
         -4   -1    0    0    0  501 -0.00000000000E+00 -0.00000000000E+00 -0.30895349463E+02  0.30927964990E+02  0.14200000000E+01 0.  1.
       1023    2    1    2    0    0  0.00000000000E+00  0.00000000000E+00 -0.27850031960E+02  0.34288077890E+02  0.20001200094E+02 0.  0.
        -11    1    3    3    0    0 -0.32779027567E+00  0.99951647035E+01 -0.13985312760E+02  0.17193014197E+02  0.51100000000E-03 0.  1.
         11    1    3    3    0    0  0.32779027567E+00 -0.99951647035E+01 -0.13864719199E+02  0.17095063692E+02  0.51100000000E-03 0. -1.
<mgrwt>
<rscale>  0 0.20001200E+02</rscale>
<asrwt>0</asrwt>
<pdfrwt beam="1">  1        4 0.49523432E-03 0.20001200E+02</pdfrwt>
<pdfrwt beam="2">  1       -4 0.47798544E-02 0.20001200E+02</pdfrwt>
<totfact> 0.12235721E+06</totfact>
</mgrwt>
</event>
<event>
 5    1  0.1154861E-006  0.2000348E+02  0.7818608E-02  0.1745259E+00
         -4   -1    0    0    0  501 -0.00000000000E+00  0.00000000000E+00  0.85297737295E+01  0.86471636897E+01  0.14200000000E+01 0.  1.
          4   -1    0    0  501    0  0.00000000000E+00 -0.00000000000E+00 -0.11486158413E+02  0.11573600783E+02  0.14200000000E+01 0. -1.
       1023    2    1    2    0    0  0.00000000000E+00  0.00000000000E+00 -0.29563846836E+01  0.20220764473E+02  0.20003477335E+02 0.  0.
        -11    1    3    3    0    0 -0.59362265734E+01 -0.80482776547E+01 -0.16254350310E+01  0.10131909911E+02  0.51100000000E-03 0.  1.
         11    1    3    3    0    0  0.59362265734E+01  0.80482776547E+01 -0.13309496526E+01  0.10088854562E+02  0.51100000000E-03 0. -1.
<mgrwt>
<rscale>  0 0.20003477E+02</rscale>
<asrwt>0</asrwt>
<pdfrwt beam="2">  1        4 0.17828576E-02 0.20003477E+02</pdfrwt>
<pdfrwt beam="1">  1       -4 0.13280292E-02 0.20003477E+02</pdfrwt>
<totfact> 0.12996292E+06</totfact>
</mgrwt>
</event>
<event>
 4    1  0.1154861E-006  0.2002354E+02  0.7818608E-02  0.1744860E+00
          4   -1    0    0  501    0  0.00000000000E+00  0.00000000000E+00  0.23723992554E+01  0.27649011242E+01  0.14200000000E+01 0. -1.
         -4   -1    0    0    0  501 -0.00000000000E+00 -0.00000000000E+00 -0.38616089628E+02  0.38642189096E+02  0.14200000000E+01 0.  1.
        -11    1    1    2    0    0 -0.31304070960E+01 -0.95090735184E+01 -0.18362819211E+02  0.20914470048E+02  0.51100000000E-03 0.  1.
         11    1    1    2    0    0  0.31304070960E+01  0.95090735184E+01 -0.17880871162E+02  0.20492620173E+02  0.51100000000E-03 0. -1.
<mgrwt>
<rscale>  0 0.20023537E+02</rscale>
<asrwt>0</asrwt>
<pdfrwt beam="1">  1        4 0.39718463E-03 0.20023537E+02</pdfrwt>
<pdfrwt beam="2">  1       -4 0.59731365E-02 0.20023537E+02</pdfrwt>
<totfact> 0.11869336E+06</totfact>
</mgrwt>
</event>
<event>
 5    1  0.1154861E-006  0.2000042E+02  0.7818608E-02  0.1745320E+00
         -4   -1    0    0    0  501 -0.00000000000E+00  0.00000000000E+00  0.24762555611E+02  0.24803236894E+02  0.14200000000E+01 0.  1.
          4   -1    0    0  501    0  0.00000000000E+00 -0.00000000000E+00 -0.38682226666E+01  0.41206245398E+01  0.14200000000E+01 0. -1.
       1023    2    1    2    0    0  0.00000000000E+00  0.00000000000E+00  0.20894332945E+02  0.28923861434E+02  0.20000415271E+02 0.  0.
        -11    1    3    3    0    0  0.63206807770E+01  0.77493463460E+01  0.10487509463E+02  0.14491074124E+02  0.51100000000E-03 0.  1.
         11    1    3    3    0    0 -0.63206807770E+01 -0.77493463460E+01  0.10406823482E+02  0.14432787310E+02  0.51100000000E-03 0. -1.
<mgrwt>
<rscale>  0 0.20000415E+02</rscale>
<asrwt>0</asrwt>
<pdfrwt beam="2">  1        4 0.61765605E-03 0.20000415E+02</pdfrwt>
<pdfrwt beam="1">  1       -4 0.38321687E-02 0.20000415E+02</pdfrwt>
<totfact> 0.12511806E+06</totfact>
</mgrwt>
</event>
<event>
 5    1  0.1169579E-006  0.2000121E+02  0.7818608E-02  0.1745304E+00
          4   -1    0    0  501    0  0.00000000000E+00  0.00000000000E+00  0.34376434092E+02  0.34405749823E+02  0.14200000000E+01 0.  1.
         -4   -1    0    0    0  501 -0.00000000000E+00 -0.00000000000E+00 -0.27035776756E+01  0.30538061903E+01  0.14200000000E+01 0. -1.
       1023    2    1    2    0    0  0.00000000000E+00  0.00000000000E+00  0.31672856416E+02  0.37459556013E+02  0.20001212542E+02 0.  0.
        -11    1    3    3    0    0  0.75112483111E+01 -0.66023702299E+01  0.15753055696E+02  0.18659284763E+02  0.51100000000E-03 0.  1.
         11    1    3    3    0    0 -0.75112483111E+01  0.66023702299E+01  0.15919800720E+02  0.18800271250E+02  0.51100000000E-03 0. -1.
<mgrwt>
<rscale>  0 0.20001213E+02</rscale>
<asrwt>0</asrwt>
<pdfrwt beam="1">  1        4 0.53178778E-02 0.20001213E+02</pdfrwt>
<pdfrwt beam="2">  1       -4 0.44513074E-03 0.20001213E+02</pdfrwt>
<totfact> 0.12081050E+06</totfact>
</mgrwt>
</event>
<event>
 5    1  0.1188463E-006  0.2000083E+02  0.7818608E-02  0.1745312E+00
          4   -1    0    0  501    0  0.00000000000E+00  0.00000000000E+00  0.84190942701E+01  0.85380061097E+01  0.14200000000E+01 0. -1.
         -4   -1    0    0    0  501 -0.00000000000E+00 -0.00000000000E+00 -0.11633062339E+02  0.11719408662E+02  0.14200000000E+01 0. -1.
       1023    2    1    2    0    0  0.00000000000E+00  0.00000000000E+00 -0.32139680690E+01  0.20257414772E+02  0.20000831545E+02 0.  0.
        -11    1    3    3    0    0  0.84080581911E+01  0.54140258428E+01 -0.16420253822E+01  0.10134266919E+02  0.51100000000E-03 0. -1.
         11    1    3    3    0    0 -0.84080581911E+01 -0.54140258428E+01 -0.15719426868E+01  0.10123147852E+02  0.51100000000E-03 0.  1.
<mgrwt>
<rscale>  0 0.20000832E+02</rscale>
<asrwt>0</asrwt>
<pdfrwt beam="1">  1        4 0.13110344E-02 0.20000832E+02</pdfrwt>
<pdfrwt beam="2">  1       -4 0.18054910E-02 0.20000832E+02</pdfrwt>
<totfact> 0.12997619E+06</totfact>
</mgrwt>
</event>
<event>
 5    1  0.1154861E-006  0.2000355E+02  0.7818608E-02  0.1745257E+00
          4   -1    0    0  501    0  0.00000000000E+00  0.00000000000E+00  0.84845476301E+02  0.84857358247E+02  0.14200000000E+01 0.  1.
         -4   -1    0    0    0  501 -0.00000000000E+00 -0.00000000000E+00 -0.73508834520E+00  0.15989855769E+01  0.14200000000E+01 0. -1.
       1023    2    1    2    0    0  0.00000000000E+00  0.00000000000E+00  0.84110387956E+02  0.86456343824E+02  0.20003550320E+02 0.  0.
        -11    1    3    3    0    0 -0.69753419173E+01 -0.71678974585E+01  0.41895965732E+02  0.43073264256E+02  0.51100000000E-03 0. -1.
         11    1    3    3    0    0  0.69753419173E+01  0.71678974585E+01  0.42214422224E+02  0.43383079568E+02  0.51100000000E-03 0.  1.
<mgrwt>
<rscale>  0 0.20003550E+02</rscale>
<asrwt>0</asrwt>
<pdfrwt beam="1">  1        4 0.13120514E-01 0.20003550E+02</pdfrwt>
<pdfrwt beam="2">  1       -4 0.18045819E-03 0.20003550E+02</pdfrwt>
<totfact> 0.10201371E+06</totfact>
</mgrwt>
</event>
<event>
 5    1  0.1154861E-006  0.2000322E+02  0.7818608E-02  0.1745264E+00
          4   -1    0    0  501    0  0.00000000000E+00  0.00000000000E+00  0.56526536126E+01  0.58282838696E+01  0.14200000000E+01 0. -1.
         -4   -1    0    0    0  501 -0.00000000000E+00 -0.00000000000E+00 -0.17220491162E+02  0.17278938505E+02  0.14200000000E+01 0.  1.
       1023    2    1    2    0    0  0.00000000000E+00  0.00000000000E+00 -0.11567837550E+02  0.23107222375E+02  0.20003221248E+02 0.  0.
        -11    1    3    3    0    0  0.65333365469E+01  0.75725485845E+01 -0.58591056332E+01  0.11591250907E+02  0.51100000000E-03 0. -1.
         11    1    3    3    0    0 -0.65333365469E+01 -0.75725485845E+01 -0.57087319164E+01  0.11515971468E+02  0.51100000000E-03 0.  1.
<mgrwt>
<rscale>  0 0.20003221E+02</rscale>
<asrwt>0</asrwt>
<pdfrwt beam="1">  1        4 0.88764499E-03 0.20003221E+02</pdfrwt>
<pdfrwt beam="2">  1       -4 0.26673123E-02 0.20003221E+02</pdfrwt>
<totfact> 0.12828233E+06</totfact>
</mgrwt>
</event>
<event>
 5    1  0.1154861E-006  0.2000035E+02  0.7818608E-02  0.1745321E+00
          4   -1    0    0  501    0  0.00000000000E+00  0.00000000000E+00  0.12838157020E+01  0.19143099950E+01  0.14200000000E+01 0.  1.
         -4   -1    0    0    0  501 -0.00000000000E+00 -0.00000000000E+00 -0.61898551868E+02  0.61914837667E+02  0.14200000000E+01 0. -1.
       1023    2    1    2    0    0  0.00000000000E+00  0.00000000000E+00 -0.60614736166E+02  0.63829147662E+02  0.20000346267E+02 0.  0.
        -11    1    3    3    0    0  0.30774484363E+01 -0.95147953033E+01 -0.30186099054E+02  0.31799411864E+02  0.51100000000E-03 0.  1.
         11    1    3    3    0    0 -0.30774484363E+01  0.95147953033E+01 -0.30428637112E+02  0.32029735798E+02  0.51100000000E-03 0. -1.
<mgrwt>
<rscale>  0 0.20000346E+02</rscale>
<asrwt>0</asrwt>
<pdfrwt beam="1">  1        4 0.24726247E-03 0.20000346E+02</pdfrwt>
<pdfrwt beam="2">  1       -4 0.95726046E-02 0.20000346E+02</pdfrwt>
<totfact> 0.10973866E+06</totfact>
</mgrwt>
</event>
<event>
 5    1  0.1154861E-006  0.2000094E+02  0.7818608E-02  0.1745309E+00
         -4   -1    0    0    0  501 -0.00000000000E+00  0.00000000000E+00  0.27333711347E+01  0.30802139146E+01  0.14200000000E+01 0. -1.
          4   -1    0    0  501    0  0.00000000000E+00 -0.00000000000E+00 -0.34042888253E+02  0.34072490966E+02  0.14200000000E+01 0.  1.
       1023    2    1    2    0    0  0.00000000000E+00  0.00000000000E+00 -0.31309517119E+02  0.37152704881E+02  0.20000940422E+02 0.  0.
        -11    1    3    3    0    0  0.66113014449E+01 -0.75033311672E+01 -0.15675002891E+02  0.18593412847E+02  0.51100000000E-03 0.  1.
         11    1    3    3    0    0 -0.66113014449E+01  0.75033311672E+01 -0.15634514227E+02  0.18559292034E+02  0.51100000000E-03 0. -1.
<mgrwt>
<rscale>  0 0.20000940E+02</rscale>
<asrwt>0</asrwt>
<pdfrwt beam="2">  1        4 0.52663245E-02 0.20000940E+02</pdfrwt>
<pdfrwt beam="1">  1       -4 0.44947601E-03 0.20000940E+02</pdfrwt>
<totfact> 0.12096100E+06</totfact>
</mgrwt>
</event>
<event>
 5    1  0.1213298E-006  0.2000110E+02  0.7818608E-02  0.1745306E+00
          4   -1    0    0  501    0  0.00000000000E+00  0.00000000000E+00  0.12199804123E+02  0.12282166773E+02  0.14200000000E+01 0.  1.
         -4   -1    0    0    0  501 -0.00000000000E+00 -0.00000000000E+00 -0.80252716755E+01  0.81499316233E+01  0.14200000000E+01 0. -1.
       1023    2    1    2    0    0  0.00000000000E+00  0.00000000000E+00  0.41745324479E+01  0.20432098397E+02  0.20001098063E+02 0.  0.
        -11    1    3    3    0    0  0.99555098283E+01  0.94618194370E+00  0.21480845062E+01  0.10228475132E+02  0.51100000000E-03 0.  1.
         11    1    3    3    0    0 -0.99555098283E+01 -0.94618194370E+00  0.20264479416E+01  0.10203623265E+02  0.51100000000E-03 0. -1.
<mgrwt>
<rscale>  0 0.20001098E+02</rscale>
<asrwt>0</asrwt>
<pdfrwt beam="1">  1        4 0.18928177E-02 0.20001098E+02</pdfrwt>
<pdfrwt beam="2">  1       -4 0.12505820E-02 0.20001098E+02</pdfrwt>
<totfact> 0.12986890E+06</totfact>
</mgrwt>
</event>
<event>
 5    1  0.1155639E-006  0.2000085E+02  0.7818608E-02  0.1745311E+00
         -4   -1    0    0    0  501 -0.00000000000E+00  0.00000000000E+00  0.53048476264E+02  0.53067478119E+02  0.14200000000E+01 0.  1.
          4   -1    0    0  501    0  0.00000000000E+00 -0.00000000000E+00 -0.15956670549E+01  0.21360134246E+01  0.14200000000E+01 0. -1.
       1023    2    1    2    0    0  0.00000000000E+00  0.00000000000E+00  0.51452809209E+02  0.55203491543E+02  0.20000847560E+02 0.  0.
        -11    1    3    3    0    0  0.99873650523E+01 -0.50953108549E+00  0.25623394766E+02  0.27505734715E+02  0.51100000000E-03 0. -1.
         11    1    3    3    0    0 -0.99873650523E+01  0.50953108549E+00  0.25829414442E+02  0.27697756828E+02  0.51100000000E-03 0.  1.
<mgrwt>
<rscale>  0 0.20000848E+02</rscale>
<asrwt>0</asrwt>
<pdfrwt beam="2">  1        4 0.28851405E-03 0.20000848E+02</pdfrwt>
<pdfrwt beam="1">  1       -4 0.82043301E-02 0.20000848E+02</pdfrwt>
<totfact> 0.11305792E+06</totfact>
</mgrwt>
</event>
<event>
 5    1  0.1166247E-006  0.2000166E+02  0.7818608E-02  0.1745295E+00
          4   -1    0    0  501    0  0.00000000000E+00  0.00000000000E+00  0.29303440894E+01  0.32562734041E+01  0.14200000000E+01 0. -1.
         -4   -1    0    0    0  501 -0.00000000000E+00 -0.00000000000E+00 -0.31990693966E+02  0.32022193873E+02  0.14200000000E+01 0.  1.
       1023    2    1    2    0    0  0.00000000000E+00  0.00000000000E+00 -0.29060349877E+02  0.35278467277E+02  0.20001657893E+02 0.  0.
        -11    1    3    3    0    0 -0.97966908625E+01 -0.20100777022E+01 -0.14586370861E+02  0.17685524572E+02  0.51100000000E-03 0.  1.
         11    1    3    3    0    0  0.97966908625E+01  0.20100777022E+01 -0.14473979016E+02  0.17592942706E+02  0.51100000000E-03 0. -1.
<mgrwt>
<rscale>  0 0.20001658E+02</rscale>
<asrwt>0</asrwt>
<pdfrwt beam="1">  1        4 0.47831675E-03 0.20001658E+02</pdfrwt>
<pdfrwt beam="2">  1       -4 0.49491395E-02 0.20001658E+02</pdfrwt>
<totfact> 0.12186244E+06</totfact>
</mgrwt>
</event>
<event>
 5    1  0.1154861E-006  0.2000027E+02  0.7818608E-02  0.1745323E+00
         -4   -1    0    0    0  501 -0.00000000000E+00  0.00000000000E+00  0.92832778667E+00  0.16965236454E+01  0.14200000000E+01 0.  1.
          4   -1    0    0  501    0  0.00000000000E+00 -0.00000000000E+00 -0.75419998995E+02  0.75433365618E+02  0.14200000000E+01 0. -1.
       1023    2    1    2    0    0  0.00000000000E+00  0.00000000000E+00 -0.74491671208E+02  0.77129889263E+02  0.20000268456E+02 0.  0.
        -11    1    3    3    0    0 -0.68836931792E+01 -0.72536634323E+01 -0.37410327514E+02  0.38723810117E+02  0.51100000000E-03 0. -1.
         11    1    3    3    0    0  0.68836931792E+01  0.72536634323E+01 -0.37081343694E+02  0.38406079146E+02  0.51100000000E-03 0.  1.
<mgrwt>
<rscale>  0 0.20000268E+02</rscale>
<asrwt>0</asrwt>
<pdfrwt beam="2">  1        4 0.11663194E-01 0.20000268E+02</pdfrwt>
<pdfrwt beam="1">  1       -4 0.20293991E-03 0.20000268E+02</pdfrwt>
<totfact> 0.10505709E+06</totfact>
</mgrwt>
</event>
<event>
 5    1  0.1154861E-006  0.2000094E+02  0.7818608E-02  0.1745309E+00
         -4   -1    0    0    0  501 -0.00000000000E+00  0.00000000000E+00  0.95168850741E+02  0.95179443954E+02  0.14200000000E+01 0. -1.
          4   -1    0    0  501    0  0.00000000000E+00 -0.00000000000E+00 -0.55555817245E+00  0.15248097858E+01  0.14200000000E+01 0.  1.
       1023    2    1    2    0    0  0.00000000000E+00  0.00000000000E+00  0.94613292568E+02  0.96704253739E+02  0.20000938995E+02 0.  0.
        -11    1    3    3    0    0  0.78766330014E+01  0.61618212460E+01  0.47300918615E+02  0.48346523045E+02  0.51100000000E-03 0.  1.
         11    1    3    3    0    0 -0.78766330014E+01 -0.61618212460E+01  0.47312373954E+02  0.48357730694E+02  0.51100000000E-03 0. -1.
<mgrwt>
<rscale>  0 0.20000939E+02</rscale>
<asrwt>0</asrwt>
<pdfrwt beam="2">  1        4 0.16084319E-03 0.20000939E+02</pdfrwt>
<pdfrwt beam="1">  1       -4 0.14716732E-01 0.20000939E+02</pdfrwt>
<totfact> 0.98951925E+05</totfact>
</mgrwt>
</event>
<event>
 5    1  0.1154861E-006  0.2000080E+02  0.7818608E-02  0.1745312E+00
         -4   -1    0    0    0  501 -0.00000000000E+00  0.00000000000E+00  0.57476581809E+02  0.57494120190E+02  0.14200000000E+01 0. -1.
          4   -1    0    0  501    0  0.00000000000E+00 -0.00000000000E+00 -0.14294103910E+01  0.20148483977E+01  0.14200000000E+01 0.  1.
       1023    2    1    2    0    0  0.00000000000E+00  0.00000000000E+00  0.56047171418E+02  0.59508968588E+02  0.20000797945E+02 0.  0.
        -11    1    3    3    0    0  0.42671862845E+01  0.90439254851E+01  0.27783478602E+02  0.29528344865E+02  0.51100000000E-03 0. -1.
         11    1    3    3    0    0 -0.42671862845E+01 -0.90439254851E+01  0.28263692816E+02  0.29980623723E+02  0.51100000000E-03 0.  1.
<mgrwt>
<rscale>  0 0.20000798E+02</rscale>
<asrwt>0</asrwt>
<pdfrwt beam="2">  1        4 0.26629210E-03 0.20000798E+02</pdfrwt>
<pdfrwt beam="1">  1       -4 0.88889335E-02 0.20000798E+02</pdfrwt>
<totfact> 0.11136850E+06</totfact>
</mgrwt>
</event>
<event>
 5    1  0.1154861E-006  0.2000038E+02  0.7818608E-02  0.1745321E+00
         -4   -1    0    0    0  501 -0.00000000000E+00  0.00000000000E+00  0.28572585412E+02  0.28607849223E+02  0.14200000000E+01 0. -1.
          4   -1    0    0  501    0  0.00000000000E+00 -0.00000000000E+00 -0.33168883495E+01  0.36080671173E+01  0.14200000000E+01 0.  1.
       1023    2    1    2    0    0  0.00000000000E+00  0.00000000000E+00  0.25255697063E+02  0.32215916340E+02  0.20000375784E+02 0.  0.
        -11    1    3    3    0    0 -0.22171280627E+01 -0.97512728972E+01  0.12672766947E+02  0.16143172003E+02  0.51100000000E-03 0.  1.
         11    1    3    3    0    0  0.22171280627E+01  0.97512728972E+01  0.12582930115E+02  0.16072744337E+02  0.51100000000E-03 0. -1.
<mgrwt>
<rscale>  0 0.20000376E+02</rscale>
<asrwt>0</asrwt>
<pdfrwt beam="2">  1        4 0.53540150E-03 0.20000376E+02</pdfrwt>
<pdfrwt beam="1">  1       -4 0.44208932E-02 0.20000376E+02</pdfrwt>
<totfact> 0.12340980E+06</totfact>
</mgrwt>
</event>
<event>
 5    1  0.1213424E-006  0.2000117E+02  0.7818608E-02  0.1745305E+00
          4   -1    0    0  501    0  0.00000000000E+00  0.00000000000E+00  0.17316294774E+02  0.17374419838E+02  0.14200000000E+01 0. -1.
         -4   -1    0    0    0  501 -0.00000000000E+00 -0.00000000000E+00 -0.56193141182E+01  0.57959547237E+01  0.14200000000E+01 0.  1.
       1023    2    1    2    0    0  0.00000000000E+00  0.00000000000E+00  0.11696980656E+02  0.23170374561E+02  0.20001172487E+02 0.  0.
        -11    1    3    3    0    0  0.20633065158E+01  0.97852924174E+01  0.57900662632E+01  0.11555693362E+02  0.51100000000E-03 0. -1.
         11    1    3    3    0    0 -0.20633065158E+01 -0.97852924174E+01  0.59069143926E+01  0.11614681200E+02  0.51100000000E-03 0.  1.
<mgrwt>
<rscale>  0 0.20001172E+02</rscale>
<asrwt>0</asrwt>
<pdfrwt beam="1">  1        4 0.26821042E-02 0.20001172E+02</pdfrwt>
<pdfrwt beam="2">  1       -4 0.88256877E-03 0.20001172E+02</pdfrwt>
<totfact> 0.12827305E+06</totfact>
</mgrwt>
</event>
<event>
 5    1  0.1154861E-006  0.2000090E+02  0.7818608E-02  0.1745310E+00
         -4   -1    0    0    0  501 -0.00000000000E+00  0.00000000000E+00  0.21602488393E+01  0.25851644140E+01  0.14200000000E+01 0. -1.
          4   -1    0    0  501    0  0.00000000000E+00 -0.00000000000E+00 -0.41711672978E+02  0.41735836671E+02  0.14200000000E+01 0.  1.
       1023    2    1    2    0    0  0.00000000000E+00  0.00000000000E+00 -0.39551424138E+02  0.44321001085E+02  0.20000899624E+02 0.  0.
        -11    1    3    3    0    0 -0.61402052105E+01  0.78934692598E+01 -0.19785421743E+02  0.22169165316E+02  0.51100000000E-03 0. -1.
         11    1    3    3    0    0  0.61402052105E+01 -0.78934692598E+01 -0.19766002395E+02  0.22151835769E+02  0.51100000000E-03 0.  1.
<mgrwt>
<rscale>  0 0.20000900E+02</rscale>
<asrwt>0</asrwt>
<pdfrwt beam="2">  1        4 0.64517245E-02 0.20000900E+02</pdfrwt>
<pdfrwt beam="1">  1       -4 0.36689056E-03 0.20000900E+02</pdfrwt>
<totfact> 0.11764868E+06</totfact>
</mgrwt>
</event>
<event>
 5    1  0.1154861E-006  0.2000021E+02  0.7818608E-02  0.1745324E+00
         -4   -1    0    0    0  501 -0.00000000000E+00  0.00000000000E+00  0.74877303343E+02  0.74890766827E+02  0.14200000000E+01 0. -1.
          4   -1    0    0  501    0  0.00000000000E+00 -0.00000000000E+00 -0.94059215237E+00  0.17032655686E+01  0.14200000000E+01 0.  1.
       1023    2    1    2    0    0  0.00000000000E+00  0.00000000000E+00  0.73936711191E+02  0.76594032396E+02  0.20000213422E+02 0.  0.
        -11    1    3    3    0    0 -0.33329948037E+01  0.94283133425E+01  0.36915968635E+02  0.38246446729E+02  0.51100000000E-03 0. -1.
         11    1    3    3    0    0  0.33329948037E+01 -0.94283133425E+01  0.37020742556E+02  0.38347585667E+02  0.51100000000E-03 0.  1.
<mgrwt>
<rscale>  0 0.20000213E+02</rscale>
<asrwt>0</asrwt>
<pdfrwt beam="2">  1        4 0.20440935E-03 0.20000213E+02</pdfrwt>
<pdfrwt beam="1">  1       -4 0.11579287E-01 0.20000213E+02</pdfrwt>
<totfact> 0.10523700E+06</totfact>
</mgrwt>
</event>
<event>
 5    1  0.1154861E-006  0.2000076E+02  0.7818608E-02  0.1745313E+00
          4   -1    0    0  501    0  0.00000000000E+00  0.00000000000E+00  0.97325776486E+00  0.17215198741E+01  0.14200000000E+01 0.  1.
         -4   -1    0    0    0  501 -0.00000000000E+00 -0.00000000000E+00 -0.73466228533E+02  0.73479950564E+02  0.14200000000E+01 0. -1.
       1023    2    1    2    0    0  0.00000000000E+00  0.00000000000E+00 -0.72492970768E+02  0.75201470438E+02  0.20000758616E+02 0.  0.
        -11    1    3    3    0    0 -0.11123914449E+01  0.99382062654E+01 -0.36069028276E+02  0.37429669509E+02  0.51100000000E-03 0.  1.
         11    1    3    3    0    0  0.11123914449E+01 -0.99382062654E+01 -0.36423942492E+02  0.37771800929E+02  0.51100000000E-03 0. -1.
<mgrwt>
<rscale>  0 0.20000759E+02</rscale>
<asrwt>0</asrwt>
<pdfrwt beam="1">  1        4 0.20834619E-03 0.20000759E+02</pdfrwt>
<pdfrwt beam="2">  1       -4 0.11361108E-01 0.20000759E+02</pdfrwt>
<totfact> 0.10570075E+06</totfact>
</mgrwt>
</event>
<event>
 5    1  0.1154861E-006  0.2000716E+02  0.7818608E-02  0.1745186E+00
          4   -1    0    0  501    0  0.00000000000E+00  0.00000000000E+00  0.91478912203E+00  0.16891533790E+01  0.14200000000E+01 0. -1.
         -4   -1    0    0    0  501 -0.00000000000E+00 -0.00000000000E+00 -0.76078686729E+02  0.76091937644E+02  0.14200000000E+01 0.  1.
       1023    2    1    2    0    0  0.00000000000E+00  0.00000000000E+00 -0.75163897607E+02  0.77781091023E+02  0.20007164148E+02 0.  0.
        -11    1    3    3    0    0  0.99706795803E+01 -0.77404171131E+00 -0.36645174019E+02  0.37985291509E+02  0.51100000000E-03 0.  1.
         11    1    3    3    0    0 -0.99706795803E+01  0.77404171131E+00 -0.38518723587E+02  0.39795799514E+02  0.51100000000E-03 0. -1.
<mgrwt>
<rscale>  0 0.20007164E+02</rscale>
<asrwt>0</asrwt>
<pdfrwt beam="1">  1        4 0.20132263E-03 0.20007164E+02</pdfrwt>
<pdfrwt beam="2">  1       -4 0.11764996E-01 0.20007164E+02</pdfrwt>
<totfact> 0.10476775E+06</totfact>
</mgrwt>
</event>
<event>
 5    1  0.1154861E-006  0.2000024E+02  0.7818608E-02  0.1745323E+00
         -4   -1    0    0    0  501 -0.00000000000E+00  0.00000000000E+00  0.40861060865E+02  0.40885727278E+02  0.14200000000E+01 0.  1.
          4   -1    0    0  501    0  0.00000000000E+00 -0.00000000000E+00 -0.22137680757E+01  0.26300511578E+01  0.14200000000E+01 0. -1.
       1023    2    1    2    0    0  0.00000000000E+00  0.00000000000E+00  0.38647292790E+02  0.43515778436E+02  0.20000243321E+02 0.  0.
        -11    1    3    3    0    0  0.99739626261E+01  0.72251978058E+00  0.19276594406E+02  0.21716101341E+02  0.51100000000E-03 0.  1.
         11    1    3    3    0    0 -0.99739626261E+01 -0.72251978058E+00  0.19370698384E+02  0.21799677095E+02  0.51100000000E-03 0. -1.
<mgrwt>
<rscale>  0 0.20000243E+02</rscale>
<asrwt>0</asrwt>
<pdfrwt beam="2">  1        4 0.37449891E-03 0.20000243E+02</pdfrwt>
<pdfrwt beam="1">  1       -4 0.63202359E-02 0.20000243E+02</pdfrwt>
<totfact> 0.11801654E+06</totfact>
</mgrwt>
</event>
<event>
 5    1  0.1154861E-006  0.2000045E+02  0.7818608E-02  0.1745319E+00
          4   -1    0    0  501    0  0.00000000000E+00  0.00000000000E+00  0.39391145051E+01  0.41872452859E+01  0.14200000000E+01 0. -1.
         -4   -1    0    0    0  501 -0.00000000000E+00 -0.00000000000E+00 -0.24342912686E+02  0.24384294085E+02  0.14200000000E+01 0.  1.
       1023    2    1    2    0    0  0.00000000000E+00  0.00000000000E+00 -0.20403798181E+02  0.28571539371E+02  0.20000447041E+02 0.  0.
        -11    1    3    3    0    0 -0.96771875653E+01  0.25209934657E+01 -0.10249342413E+02  0.14319650393E+02  0.51100000000E-03 0. -1.
         11    1    3    3    0    0  0.96771875653E+01 -0.25209934657E+01 -0.10154455768E+02  0.14251888977E+02  0.51100000000E-03 0.  1.
<mgrwt>
<rscale>  0 0.20000447E+02</rscale>
<asrwt>0</asrwt>
<pdfrwt beam="1">  1        4 0.62828780E-03 0.20000447E+02</pdfrwt>
<pdfrwt beam="2">  1       -4 0.37673336E-02 0.20000447E+02</pdfrwt>
<totfact> 0.12530463E+06</totfact>
</mgrwt>
</event>
<event>
 5    1  0.1154861E-006  0.2000041E+02  0.7818608E-02  0.1745320E+00
         -4   -1    0    0    0  501 -0.00000000000E+00  0.00000000000E+00  0.25982620623E+01  0.29609737832E+01  0.14200000000E+01 0. -1.
          4   -1    0    0  501    0  0.00000000000E+00 -0.00000000000E+00 -0.35599836189E+02  0.35628145288E+02  0.14200000000E+01 0.  1.
       1023    2    1    2    0    0  0.00000000000E+00  0.00000000000E+00 -0.33001574127E+02  0.38589119072E+02  0.20000405393E+02 0.  0.
        -11    1    3    3    0    0 -0.32378519127E+01  0.94614332575E+01 -0.16422427740E+02  0.19227546319E+02  0.51100000000E-03 0.  1.
         11    1    3    3    0    0  0.32378519127E+01 -0.94614332575E+01 -0.16579146387E+02  0.19361572753E+02  0.51100000000E-03 0. -1.
<mgrwt>
<rscale>  0 0.20000405E+02</rscale>
<asrwt>0</asrwt>
<pdfrwt beam="2">  1        4 0.55069761E-02 0.20000405E+02</pdfrwt>
<pdfrwt beam="1">  1       -4 0.42981118E-03 0.20000405E+02</pdfrwt>
<totfact> 0.12028297E+06</totfact>
</mgrwt>
</event>
<event>
 5    1  0.1166609E-006  0.2000193E+02  0.7818608E-02  0.1745290E+00
         -4   -1    0    0    0  501 -0.00000000000E+00  0.00000000000E+00  0.24743447399E+02  0.24784160046E+02  0.14200000000E+01 0. -1.
          4   -1    0    0  501    0  0.00000000000E+00 -0.00000000000E+00 -0.38720310365E+01  0.41241998433E+01  0.14200000000E+01 0.  1.
       1023    2    1    2    0    0  0.00000000000E+00  0.00000000000E+00  0.20871416362E+02  0.28908359889E+02  0.20001931170E+02 0.  0.
        -11    1    3    3    0    0 -0.50274992812E+01  0.86452564917E+01  0.10516223779E+02  0.14512311038E+02  0.51100000000E-03 0.  1.
         11    1    3    3    0    0  0.50274992812E+01 -0.86452564917E+01  0.10355192584E+02  0.14396048851E+02  0.51100000000E-03 0. -1.
<mgrwt>
<rscale>  0 0.20001931E+02</rscale>
<asrwt>0</asrwt>
<pdfrwt beam="2">  1        4 0.61822643E-03 0.20001931E+02</pdfrwt>
<pdfrwt beam="1">  1       -4 0.38292136E-02 0.20001931E+02</pdfrwt>
<totfact> 0.12510699E+06</totfact>
</mgrwt>
</event>
<event>
 5    1  0.1188294E-006  0.2000068E+02  0.7818608E-02  0.1745315E+00
         -4   -1    0    0    0  501 -0.00000000000E+00  0.00000000000E+00  0.58224040329E+01  0.59930617152E+01  0.14200000000E+01 0.  1.
          4   -1    0    0  501    0  0.00000000000E+00 -0.00000000000E+00 -0.16726939630E+02  0.16787105450E+02  0.14200000000E+01 0. -1.
       1023    2    1    2    0    0  0.00000000000E+00  0.00000000000E+00 -0.10904535597E+02  0.22780167165E+02  0.20000677975E+02 0.  0.
        -11    1    3    3    0    0  0.99437459809E+01 -0.10621541936E+01 -0.54261969614E+01  0.11377603851E+02  0.51100000000E-03 0. -1.
         11    1    3    3    0    0 -0.99437459809E+01  0.10621541936E+01 -0.54783386354E+01  0.11402563314E+02  0.51100000000E-03 0.  1.
<mgrwt>
<rscale>  0 0.20000678E+02</rscale>
<asrwt>0</asrwt>
<pdfrwt beam="2">  1        4 0.25911310E-02 0.20000678E+02</pdfrwt>
<pdfrwt beam="1">  1       -4 0.91351013E-03 0.20000678E+02</pdfrwt>
<totfact> 0.12850290E+06</totfact>
</mgrwt>
</event>
<event>
 5    1  0.1154861E-006  0.2000335E+02  0.7818608E-02  0.1745262E+00
          4   -1    0    0  501    0  0.00000000000E+00  0.00000000000E+00  0.29404032625E+01  0.32653286735E+01  0.14200000000E+01 0.  1.
         -4   -1    0    0    0  501 -0.00000000000E+00 -0.00000000000E+00 -0.31897504888E+02  0.31929096731E+02  0.14200000000E+01 0. -1.
       1023    2    1    2    0    0  0.00000000000E+00  0.00000000000E+00 -0.28957101626E+02  0.35194425405E+02  0.20003345846E+02 0.  0.
        -11    1    3    3    0    0 -0.95267737407E+01  0.30426010193E+01 -0.14705388147E+02  0.17783848843E+02  0.51100000000E-03 0.  1.
         11    1    3    3    0    0  0.95267737407E+01 -0.30426010193E+01 -0.14251713478E+02  0.17410576561E+02  0.51100000000E-03 0. -1.
<mgrwt>
<rscale>  0 0.20003346E+02</rscale>
<asrwt>0</asrwt>
<pdfrwt beam="1">  1        4 0.47979416E-03 0.20003346E+02</pdfrwt>
<pdfrwt beam="2">  1       -4 0.49347326E-02 0.20003346E+02</pdfrwt>
<totfact> 0.12188286E+06</totfact>
</mgrwt>
</event>
<event>
 5    1  0.1154861E-006  0.2000008E+02  0.7818608E-02  0.1745327E+00
          4   -1    0    0  501    0  0.00000000000E+00  0.00000000000E+00  0.21300133639E+02  0.21347414201E+02  0.14200000000E+01 0. -1.
         -4   -1    0    0    0  501 -0.00000000000E+00 -0.00000000000E+00 -0.45336472140E+01  0.47508269871E+01  0.14200000000E+01 0.  1.
       1023    2    1    2    0    0  0.00000000000E+00  0.00000000000E+00  0.16766486425E+02  0.26098241188E+02  0.20000078151E+02 0.  0.
        -11    1    3    3    0    0  0.27275941963E+01  0.96208618268E+01  0.83902532335E+01  0.13053624093E+02  0.51100000000E-03 0. -1.
         11    1    3    3    0    0 -0.27275941963E+01 -0.96208618268E+01  0.83762331919E+01  0.13044617094E+02  0.51100000000E-03 0.  1.
<mgrwt>
<rscale>  0 0.20000078E+02</rscale>
<asrwt>0</asrwt>
<pdfrwt beam="1">  1        4 0.32972867E-02 0.20000078E+02</pdfrwt>
<pdfrwt beam="2">  1       -4 0.71782730E-03 0.20000078E+02</pdfrwt>
<totfact> 0.12664663E+06</totfact>
</mgrwt>
</event>
<event>
 5    1  0.1154861E-006  0.2000008E+02  0.7818608E-02  0.1745326E+00
          4   -1    0    0  501    0  0.00000000000E+00  0.00000000000E+00  0.11066943390E+02  0.11157671620E+02  0.14200000000E+01 0. -1.
         -4   -1    0    0    0  501 -0.00000000000E+00 -0.00000000000E+00 -0.88515566429E+01  0.89647339616E+01  0.14200000000E+01 0.  1.
       1023    2    1    2    0    0  0.00000000000E+00  0.00000000000E+00  0.22153867468E+01  0.20122405582E+02  0.20000081699E+02 0.  0.
        -11    1    3    3    0    0  0.52228821199E+01  0.85277260182E+01  0.10931811665E+01  0.10059605062E+02  0.51100000000E-03 0.  1.
         11    1    3    3    0    0 -0.52228821199E+01 -0.85277260182E+01  0.11222055802E+01  0.10062800520E+02  0.51100000000E-03 0. -1.
<mgrwt>
<rscale>  0 0.20000082E+02</rscale>
<asrwt>0</asrwt>
<pdfrwt beam="1">  1        4 0.17182917E-02 0.20000082E+02</pdfrwt>
<pdfrwt beam="2">  1       -4 0.13774630E-02 0.20000082E+02</pdfrwt>
<totfact> 0.13006669E+06</totfact>
</mgrwt>
</event>
<event>
 5    1  0.1154861E-006  0.2000034E+02  0.7818608E-02  0.1745321E+00
          4   -1    0    0  501    0  0.00000000000E+00  0.00000000000E+00  0.69583970916E+01  0.71018089304E+01  0.14200000000E+01 0.  1.
         -4   -1    0    0    0  501 -0.00000000000E+00 -0.00000000000E+00 -0.14045447919E+02  0.14117046690E+02  0.14200000000E+01 0. -1.
       1023    2    1    2    0    0  0.00000000000E+00  0.00000000000E+00 -0.70870508279E+01  0.21218855621E+02  0.20000338608E+02 0.  0.
        -11    1    3    3    0    0 -0.52676808489E+01 -0.85002557011E+01 -0.35180337612E+01  0.10600913655E+02  0.51100000000E-03 0. -1.
         11    1    3    3    0    0  0.52676808489E+01  0.85002557011E+01 -0.35690170666E+01  0.10617941966E+02  0.51100000000E-03 0.  1.
<mgrwt>
<rscale>  0 0.20000339E+02</rscale>
<asrwt>0</asrwt>
<pdfrwt beam="1">  1        4 0.10870619E-02 0.20000339E+02</pdfrwt>
<pdfrwt beam="2">  1       -4 0.21773774E-02 0.20000339E+02</pdfrwt>
<totfact> 0.12941410E+06</totfact>
</mgrwt>
</event>
<event>
 4    1  0.1154861E-006  0.2001272E+02  0.7818608E-02  0.1745075E+00
          4   -1    0    0  501    0  0.00000000000E+00  0.00000000000E+00  0.44683657775E+02  0.44706215140E+02  0.14200000000E+01 0.  1.
         -4   -1    0    0    0  501 -0.00000000000E+00 -0.00000000000E+00 -0.19903064600E+01  0.24449375871E+01  0.14200000000E+01 0. -1.
        -11    1    1    2    0    0  0.91066385694E+01 -0.41390295380E+01  0.21946464836E+02  0.24118659801E+02  0.51100000000E-03 0. -1.
         11    1    1    2    0    0 -0.91066385694E+01  0.41390295380E+01  0.20746886479E+02  0.23032492926E+02  0.51100000000E-03 0.  1.
<mgrwt>
<rscale>  0 0.20012720E+02</rscale>
<asrwt>0</asrwt>
<pdfrwt beam="1">  1        4 0.69111149E-02 0.20012720E+02</pdfrwt>
<pdfrwt beam="2">  1       -4 0.34290784E-03 0.20012720E+02</pdfrwt>
<totfact> 0.11626788E+06</totfact>
</mgrwt>
</event>
<event>
 5    1  0.1154861E-006  0.2000008E+02  0.7818608E-02  0.1745326E+00
         -4   -1    0    0    0  501 -0.00000000000E+00  0.00000000000E+00  0.10407846559E+03  0.10408815206E+03  0.14200000000E+01 0. -1.
          4   -1    0    0  501    0  0.00000000000E+00 -0.00000000000E+00 -0.42102819747E+00  0.14811025431E+01  0.14200000000E+01 0.  1.
       1023    2    1    2    0    0  0.00000000000E+00  0.00000000000E+00  0.10365743739E+03  0.10556925461E+03  0.20000079774E+02 0.  0.
        -11    1    3    3    0    0 -0.99146763722E+01 -0.13037083638E+01  0.51925246266E+02  0.52879406796E+02  0.51100000000E-03 0. -1.
         11    1    3    3    0    0  0.99146763722E+01  0.13037083638E+01  0.51732191129E+02  0.52689847811E+02  0.51100000000E-03 0.  1.
<mgrwt>
<rscale>  0 0.20000080E+02</rscale>
<asrwt>0</asrwt>
<pdfrwt beam="2">  1        4 0.14706285E-03 0.20000080E+02</pdfrwt>
<pdfrwt beam="1">  1       -4 0.16094362E-01 0.20000080E+02</pdfrwt>
<totfact> 0.96453810E+05</totfact>
</mgrwt>
</event>
<event>
 5    1  0.1160380E-006  0.2000063E+02  0.7818608E-02  0.1745316E+00
          4   -1    0    0  501    0  0.00000000000E+00  0.00000000000E+00  0.14700481470E+02  0.14768905019E+02  0.14200000000E+01 0. -1.
         -4   -1    0    0    0  501 -0.00000000000E+00 -0.00000000000E+00 -0.66435023801E+01  0.67935648871E+01  0.14200000000E+01 0.  1.
       1023    2    1    2    0    0  0.00000000000E+00  0.00000000000E+00  0.80569790900E+01  0.21562469906E+02  0.20000629900E+02 0.  0.
        -11    1    3    3    0    0  0.94190331297E+00 -0.99558581450E+01  0.40259426608E+01  0.10780283290E+02  0.51100000000E-03 0.  1.
         11    1    3    3    0    0 -0.94190331297E+00  0.99558581450E+01  0.40310364292E+01  0.10782186615E+02  0.51100000000E-03 0. -1.
<mgrwt>
<rscale>  0 0.20000630E+02</rscale>
<asrwt>0</asrwt>
<pdfrwt beam="1">  1        4 0.22784191E-02 0.20000630E+02</pdfrwt>
<pdfrwt beam="2">  1       -4 0.10388839E-02 0.20000630E+02</pdfrwt>
<totfact> 0.12920881E+06</totfact>
</mgrwt>
</event>
<event>
 5    1  0.1154861E-006  0.2000277E+02  0.7818608E-02  0.1745273E+00
          4   -1    0    0  501    0  0.00000000000E+00  0.00000000000E+00  0.28031892772E+01  0.31423351387E+01  0.14200000000E+01 0.  1.
         -4   -1    0    0    0  501 -0.00000000000E+00 -0.00000000000E+00 -0.33292938074E+02  0.33323207012E+02  0.14200000000E+01 0. -1.
       1023    2    1    2    0    0  0.00000000000E+00  0.00000000000E+00 -0.30489748796E+02  0.36465542151E+02  0.20002774375E+02 0.  0.
        -11    1    3    3    0    0 -0.63232215969E+01  0.77488149055E+01 -0.15204867116E+02  0.18199319989E+02  0.51100000000E-03 0. -1.
         11    1    3    3    0    0  0.63232215969E+01 -0.77488149055E+01 -0.15284881681E+02  0.18266222162E+02  0.51100000000E-03 0.  1.
<mgrwt>
<rscale>  0 0.20002774E+02</rscale>
<asrwt>0</asrwt>
<pdfrwt beam="1">  1        4 0.45967644E-03 0.20002774E+02</pdfrwt>
<pdfrwt beam="2">  1       -4 0.51504067E-02 0.20002774E+02</pdfrwt>
<totfact> 0.12126992E+06</totfact>
</mgrwt>
</event>
<event>
 5    1  0.1154861E-006  0.2000473E+02  0.7818608E-02  0.1745234E+00
         -4   -1    0    0    0  501 -0.00000000000E+00  0.00000000000E+00  0.53399915094E+02  0.53418791938E+02  0.14200000000E+01 0.  1.
          4   -1    0    0  501    0  0.00000000000E+00 -0.00000000000E+00 -0.15824372906E+01  0.21261485787E+01  0.14200000000E+01 0. -1.
       1023    2    1    2    0    0  0.00000000000E+00  0.00000000000E+00  0.51817477804E+02  0.55544940516E+02  0.20004734715E+02 0.  0.
        -11    1    3    3    0    0  0.99539964375E+01  0.97774727180E+00  0.26176758050E+02  0.28022503404E+02  0.51100000000E-03 0.  1.
         11    1    3    3    0    0 -0.99539964375E+01 -0.97774727180E+00  0.25640719754E+02  0.27522437112E+02  0.51100000000E-03 0. -1.
<mgrwt>
<rscale>  0 0.20004735E+02</rscale>
<asrwt>0</asrwt>
<pdfrwt beam="2">  1        4 0.28672788E-03 0.20004735E+02</pdfrwt>
<pdfrwt beam="1">  1       -4 0.82586482E-02 0.20004735E+02</pdfrwt>
<totfact> 0.11287728E+06</totfact>
</mgrwt>
</event>
<event>
 5    1  0.1154861E-006  0.2000263E+02  0.7818608E-02  0.1745276E+00
          4   -1    0    0  501    0  0.00000000000E+00  0.00000000000E+00  0.35345619377E+00  0.14633288355E+01  0.14200000000E+01 0.  1.
         -4   -1    0    0    0  501 -0.00000000000E+00 -0.00000000000E+00 -0.10899614941E+03  0.10900539888E+03  0.14200000000E+01 0. -1.
       1023    2    1    2    0    0  0.00000000000E+00  0.00000000000E+00 -0.10864269322E+03  0.11046872772E+03  0.20002625204E+02 0.  0.
        -11    1    3    3    0    0  0.98999568557E+01 -0.14200079687E+01 -0.54176790346E+02  0.55092197095E+02  0.51100000000E-03 0.  1.
         11    1    3    3    0    0 -0.98999568557E+01  0.14200079687E+01 -0.54465902870E+02  0.55376530625E+02  0.51100000000E-03 0. -1.
<mgrwt>
<rscale>  0 0.20002625E+02</rscale>
<asrwt>0</asrwt>
<pdfrwt beam="1">  1        4 0.14046428E-03 0.20002625E+02</pdfrwt>
<pdfrwt beam="2">  1       -4 0.16854714E-01 0.20002625E+02</pdfrwt>
<totfact> 0.95102967E+05</totfact>
</mgrwt>
</event>
<event>
 5    1  0.1154861E-006  0.2000057E+02  0.7818608E-02  0.1745317E+00
         -4   -1    0    0    0  501 -0.00000000000E+00  0.00000000000E+00  0.15872553977E+01  0.21297370020E+01  0.14200000000E+01 0. -1.
          4   -1    0    0  501    0  0.00000000000E+00 -0.00000000000E+00 -0.53256708338E+02  0.53275635923E+02  0.14200000000E+01 0.  1.
       1023    2    1    2    0    0  0.00000000000E+00  0.00000000000E+00 -0.51669452940E+02  0.55405372925E+02  0.20000574537E+02 0.  0.
        -11    1    3    3    0    0 -0.85453296196E+01  0.51943919195E+01 -0.25937614691E+02  0.27798637050E+02  0.51100000000E-03 0.  1.
         11    1    3    3    0    0  0.85453296196E+01 -0.51943919195E+01 -0.25731838249E+02  0.27606735874E+02  0.51100000000E-03 0. -1.
<mgrwt>
<rscale>  0 0.20000575E+02</rscale>
<asrwt>0</asrwt>
<pdfrwt beam="2">  1        4 0.82365239E-02 0.20000575E+02</pdfrwt>
<pdfrwt beam="1">  1       -4 0.28737850E-03 0.20000575E+02</pdfrwt>
<totfact> 0.11298030E+06</totfact>
</mgrwt>
</event>
<event>
 5    1  0.1154861E-006  0.2000145E+02  0.7818608E-02  0.1745299E+00
         -4   -1    0    0    0  501 -0.00000000000E+00  0.00000000000E+00  0.13197585421E+01  0.19385981042E+01  0.14200000000E+01 0. -1.
          4   -1    0    0  501    0  0.00000000000E+00 -0.00000000000E+00 -0.60760843679E+02  0.60777434337E+02  0.14200000000E+01 0.  1.
       1023    2    1    2    0    0  0.00000000000E+00  0.00000000000E+00 -0.59441085137E+02  0.62716032441E+02  0.20001453020E+02 0.  0.
        -11    1    3    3    0    0 -0.35272907858E+01  0.93575079374E+01 -0.29410209779E+02  0.31063888594E+02  0.51100000000E-03 0.  1.
         11    1    3    3    0    0  0.35272907858E+01 -0.93575079374E+01 -0.30030875358E+02  0.31652143847E+02  0.51100000000E-03 0. -1.
<mgrwt>
<rscale>  0 0.20001453E+02</rscale>
<asrwt>0</asrwt>
<pdfrwt beam="2">  1        4 0.93966996E-02 0.20001453E+02</pdfrwt>
<pdfrwt beam="1">  1       -4 0.25191907E-03 0.20001453E+02</pdfrwt>
<totfact> 0.11014186E+06</totfact>
</mgrwt>
</event>
<event>
 5    1  0.1154861E-006  0.2000029E+02  0.7818608E-02  0.1745322E+00
          4   -1    0    0  501    0  0.00000000000E+00  0.00000000000E+00  0.67600257752E+01  0.69075573455E+01  0.14200000000E+01 0.  1.
         -4   -1    0    0    0  501 -0.00000000000E+00 -0.00000000000E+00 -0.14450877595E+02  0.14520477377E+02  0.14200000000E+01 0. -1.
       1023    2    1    2    0    0  0.00000000000E+00  0.00000000000E+00 -0.76908518199E+01  0.21428034723E+02  0.20000286757E+02 0.  0.
        -11    1    3    3    0    0  0.15984842371E+01  0.98714417231E+01 -0.37934467607E+01  0.10695361244E+02  0.51100000000E-03 0.  1.
         11    1    3    3    0    0 -0.15984842371E+01 -0.98714417231E+01 -0.38974050593E+01  0.10732673479E+02  0.51100000000E-03 0. -1.
<mgrwt>
<rscale>  0 0.20000287E+02</rscale>
<asrwt>0</asrwt>
<pdfrwt beam="1">  1        4 0.10567064E-02 0.20000287E+02</pdfrwt>
<pdfrwt beam="2">  1       -4 0.22399143E-02 0.20000287E+02</pdfrwt>
<totfact> 0.12929201E+06</totfact>
</mgrwt>
</event>
<event>
 4    1  0.1154861E-006  0.2003900E+02  0.7818608E-02  0.1744554E+00
          4   -1    0    0  501    0  0.00000000000E+00  0.00000000000E+00  0.85305911390E+01  0.86479700035E+01  0.14200000000E+01 0.  1.
         -4   -1    0    0    0  501 -0.00000000000E+00 -0.00000000000E+00 -0.11526618973E+02  0.11613756711E+02  0.14200000000E+01 0. -1.
        -11    1    1    2    0    0 -0.82141035069E+01 -0.57371363512E+01 -0.14331410231E+01  0.10121270839E+02  0.51100000000E-03 0.  1.
         11    1    1    2    0    0  0.82141035069E+01  0.57371363512E+01 -0.15628868110E+01  0.10140455876E+02  0.51100000000E-03 0. -1.
<mgrwt>
<rscale>  0 0.20038997E+02</rscale>
<asrwt>0</asrwt>
<pdfrwt beam="1">  1        4 0.13281307E-02 0.20038997E+02</pdfrwt>
<pdfrwt beam="2">  1       -4 0.17890580E-02 0.20038997E+02</pdfrwt>
<totfact> 0.12946875E+06</totfact>
</mgrwt>
</event>
<event>
 5    1  0.1154861E-006  0.2000036E+02  0.7818608E-02  0.1745321E+00
          4   -1    0    0  501    0  0.00000000000E+00  0.00000000000E+00  0.83029379976E+00  0.16449278993E+01  0.14200000000E+01 0. -1.
         -4   -1    0    0    0  501 -0.00000000000E+00 -0.00000000000E+00 -0.79980735674E+02  0.79993340216E+02  0.14200000000E+01 0.  1.
       1023    2    1    2    0    0  0.00000000000E+00  0.00000000000E+00 -0.79150441874E+02  0.81638268116E+02  0.20000359297E+02 0.  0.
        -11    1    3    3    0    0  0.17146277576E+01 -0.98519597804E+01 -0.39780650770E+02  0.41018303668E+02  0.51100000000E-03 0. -1.
         11    1    3    3    0    0 -0.17146277576E+01  0.98519597804E+01 -0.39369791104E+02  0.40619964447E+02  0.51100000000E-03 0.  1.
<mgrwt>
<rscale>  0 0.20000359E+02</rscale>
<asrwt>0</asrwt>
<pdfrwt beam="1">  1        4 0.19137131E-03 0.20000359E+02</pdfrwt>
<pdfrwt beam="2">  1       -4 0.12368358E-01 0.20000359E+02</pdfrwt>
<totfact> 0.10357564E+06</totfact>
</mgrwt>
</event>
<event>
 5    1  0.1154861E-006  0.2000097E+02  0.7818608E-02  0.1745309E+00
          4   -1    0    0  501    0  0.00000000000E+00  0.00000000000E+00  0.17607023726E+01  0.22619621670E+01  0.14200000000E+01 0.  1.
         -4   -1    0    0    0  501 -0.00000000000E+00 -0.00000000000E+00 -0.49210336279E+02  0.49230819581E+02  0.14200000000E+01 0. -1.
       1023    2    1    2    0    0  0.00000000000E+00  0.00000000000E+00 -0.47449633906E+02  0.51492781748E+02  0.20000970336E+02 0.  0.
        -11    1    3    3    0    0 -0.99875639818E+01 -0.50074513440E+00 -0.23501510667E+02  0.25540618314E+02  0.51100000000E-03 0. -1.
         11    1    3    3    0    0  0.99875639818E+01  0.50074513440E+00 -0.23948123239E+02  0.25952163434E+02  0.51100000000E-03 0.  1.
<mgrwt>
<rscale>  0 0.20000970E+02</rscale>
<asrwt>0</asrwt>
<pdfrwt beam="1">  1        4 0.31101141E-03 0.20000970E+02</pdfrwt>
<pdfrwt beam="2">  1       -4 0.76109541E-02 0.20000970E+02</pdfrwt>
<totfact> 0.11456769E+06</totfact>
</mgrwt>
</event>
<event>
 5    1  0.1154861E-006  0.2000057E+02  0.7818608E-02  0.1745317E+00
         -4   -1    0    0    0  501 -0.00000000000E+00  0.00000000000E+00  0.17159614529E+02  0.17218268519E+02  0.14200000000E+01 0.  1.
          4   -1    0    0  501    0  0.00000000000E+00 -0.00000000000E+00 -0.56716930865E+01  0.58467514457E+01  0.14200000000E+01 0. -1.
       1023    2    1    2    0    0  0.00000000000E+00  0.00000000000E+00  0.11487921443E+02  0.23065019965E+02  0.20000570164E+02 0.  0.
        -11    1    3    3    0    0 -0.38832943131E+01 -0.92153635402E+01  0.58050003126E+01  0.11562911778E+02  0.51100000000E-03 0. -1.
         11    1    3    3    0    0  0.38832943131E+01  0.92153635402E+01  0.56829211301E+01  0.11502108186E+02  0.51100000000E-03 0.  1.
<mgrwt>
<rscale>  0 0.20000570E+02</rscale>
<asrwt>0</asrwt>
<pdfrwt beam="2">  1        4 0.89054606E-03 0.20000570E+02</pdfrwt>
<pdfrwt beam="1">  1       -4 0.26579185E-02 0.20000570E+02</pdfrwt>
<totfact> 0.12834111E+06</totfact>
</mgrwt>
</event>
<event>
 5    1  0.1154861E-006  0.2000007E+02  0.7818608E-02  0.1745327E+00
          4   -1    0    0  501    0  0.00000000000E+00  0.00000000000E+00  0.13836211288E+01  0.19826263965E+01  0.14200000000E+01 0.  1.
         -4   -1    0    0    0  501 -0.00000000000E+00 -0.00000000000E+00 -0.58804680601E+02  0.58821822996E+02  0.14200000000E+01 0. -1.
       1023    2    1    2    0    0  0.00000000000E+00  0.00000000000E+00 -0.57421059472E+02  0.60804449393E+02  0.20000074875E+02 0.  0.
        -11    1    3    3    0    0  0.11452995851E+01  0.99342301499E+01 -0.28742224310E+02  0.30432155664E+02  0.51100000000E-03 0. -1.
         11    1    3    3    0    0 -0.11452995851E+01 -0.99342301499E+01 -0.28678835162E+02  0.30372293729E+02  0.51100000000E-03 0.  1.
<mgrwt>
<rscale>  0 0.20000075E+02</rscale>
<asrwt>0</asrwt>
<pdfrwt beam="1">  1        4 0.26026081E-03 0.20000075E+02</pdfrwt>
<pdfrwt beam="2">  1       -4 0.90942683E-02 0.20000075E+02</pdfrwt>
<totfact> 0.11087993E+06</totfact>
</mgrwt>
</event>
<event>
 5    1  0.1154861E-006  0.2000579E+02  0.7818608E-02  0.1745213E+00
         -4   -1    0    0    0  501 -0.00000000000E+00  0.00000000000E+00  0.92008434536E+01  0.93097755213E+01  0.14200000000E+01 0. -1.
          4   -1    0    0  501    0  0.00000000000E+00 -0.00000000000E+00 -0.10654552915E+02  0.10748762618E+02  0.14200000000E+01 0.  1.
       1023    2    1    2    0    0  0.00000000000E+00  0.00000000000E+00 -0.14537094612E+01  0.20058538139E+02  0.20005791189E+02 0.  0.
        -11    1    3    3    0    0  0.92971851594E+01 -0.36847835286E+01 -0.93389000346E+00  0.10044273609E+02  0.51100000000E-03 0. -1.
         11    1    3    3    0    0 -0.92971851594E+01  0.36847835286E+01 -0.51981945773E+00  0.10014264530E+02  0.51100000000E-03 0.  1.
<mgrwt>
<rscale>  0 0.20005791E+02</rscale>
<asrwt>0</asrwt>
<pdfrwt beam="2">  1        4 0.16547883E-02 0.20005791E+02</pdfrwt>
<pdfrwt beam="1">  1       -4 0.14311407E-02 0.20005791E+02</pdfrwt>
<totfact> 0.13002882E+06</totfact>
</mgrwt>
</event>
<event>
 5    1  0.1154861E-006  0.2000025E+02  0.7818608E-02  0.1745323E+00
         -4   -1    0    0    0  501 -0.00000000000E+00  0.00000000000E+00  0.70219330488E+01  0.71640731251E+01  0.14200000000E+01 0.  1.
          4   -1    0    0  501    0  0.00000000000E+00 -0.00000000000E+00 -0.13920125459E+02  0.13992365518E+02  0.14200000000E+01 0. -1.
       1023    2    1    2    0    0  0.00000000000E+00  0.00000000000E+00 -0.68981924097E+01  0.21156438643E+02  0.20000245937E+02 0.  0.
        -11    1    3    3    0    0 -0.96199933798E+01 -0.27306693341E+01 -0.34063696240E+01  0.10564288046E+02  0.51100000000E-03 0.  1.
         11    1    3    3    0    0  0.96199933798E+01  0.27306693341E+01 -0.34918227857E+01  0.10592150597E+02  0.51100000000E-03 0. -1.
<mgrwt>
<rscale>  0 0.20000246E+02</rscale>
<asrwt>0</asrwt>
<pdfrwt beam="2">  1        4 0.21580485E-02 0.20000246E+02</pdfrwt>
<pdfrwt beam="1">  1       -4 0.10967882E-02 0.20000246E+02</pdfrwt>
<totfact> 0.12945204E+06</totfact>
</mgrwt>
</event>
<event>
 5    1  0.1154861E-006  0.2000741E+02  0.7818608E-02  0.1745181E+00
          4   -1    0    0  501    0  0.00000000000E+00  0.00000000000E+00  0.48954922511E+01  0.50972781345E+01  0.14200000000E+01 0.  1.
         -4   -1    0    0    0  501 -0.00000000000E+00 -0.00000000000E+00 -0.19801579304E+02  0.19852429145E+02  0.14200000000E+01 0. -1.
       1023    2    1    2    0    0  0.00000000000E+00  0.00000000000E+00 -0.14906087053E+02  0.24949707279E+02  0.20007410179E+02 0.  0.
        -11    1    3    3    0    0  0.17688513141E+01 -0.98423877235E+01 -0.77892410779E+01  0.12675713309E+02  0.51100000000E-03 0.  1.
         11    1    3    3    0    0 -0.17688513141E+01  0.98423877235E+01 -0.71168459753E+01  0.12273993970E+02  0.51100000000E-03 0. -1.
<mgrwt>
<rscale>  0 0.20007410E+02</rscale>
<asrwt>0</asrwt>
<pdfrwt beam="1">  1        4 0.77258618E-03 0.20007410E+02</pdfrwt>
<pdfrwt beam="2">  1       -4 0.30658303E-02 0.20007410E+02</pdfrwt>
<totfact> 0.12718805E+06</totfact>
</mgrwt>
</event>
<event>
 5    1  0.1154861E-006  0.2000318E+02  0.7818608E-02  0.1745265E+00
         -4   -1    0    0    0  501 -0.00000000000E+00  0.00000000000E+00  0.73963574241E+02  0.73977204020E+02  0.14200000000E+01 0. -1.
          4   -1    0    0  501    0  0.00000000000E+00 -0.00000000000E+00 -0.96208660298E+00  0.17152290318E+01  0.14200000000E+01 0.  1.
       1023    2    1    2    0    0  0.00000000000E+00  0.00000000000E+00  0.73001487638E+02  0.75692433051E+02  0.20003180343E+02 0.  0.
        -11    1    3    3    0    0  0.96748695561E+01  0.25318511427E+01  0.35986972574E+02  0.37350710387E+02  0.51100000000E-03 0. -1.
         11    1    3    3    0    0 -0.96748695561E+01 -0.25318511427E+01  0.37014515065E+02  0.38341722664E+02  0.51100000000E-03 0.  1.
<mgrwt>
<rscale>  0 0.20003180E+02</rscale>
<asrwt>0</asrwt>
<pdfrwt beam="2">  1        4 0.20699583E-03 0.20003180E+02</pdfrwt>
<pdfrwt beam="1">  1       -4 0.11437992E-01 0.20003180E+02</pdfrwt>
<totfact> 0.10550904E+06</totfact>
</mgrwt>
</event>
<event>
 4    1  0.1154861E-006  0.2001914E+02  0.7818608E-02  0.1744948E+00
         -4   -1    0    0    0  501 -0.00000000000E+00  0.00000000000E+00  0.11725946154E+02  0.11811613488E+02  0.14200000000E+01 0.  1.
          4   -1    0    0  501    0  0.00000000000E+00 -0.00000000000E+00 -0.83676270812E+01  0.84872600390E+01  0.14200000000E+01 0. -1.
        -11    1    1    2    0    0  0.66772227900E+01  0.74541552696E+01  0.14719647167E+01  0.10115157703E+02  0.51100000000E-03 0. -1.
         11    1    1    2    0    0 -0.66772227900E+01 -0.74541552696E+01  0.18863543558E+01  0.10183715824E+02  0.51100000000E-03 0.  1.
<mgrwt>
<rscale>  0 0.20019140E+02</rscale>
<asrwt>0</asrwt>
<pdfrwt beam="2">  1        4 0.13031196E-02 0.20019140E+02</pdfrwt>
<pdfrwt beam="1">  1       -4 0.18197841E-02 0.20019140E+02</pdfrwt>
<totfact> 0.12970904E+06</totfact>
</mgrwt>
</event>
<event>
 5    1  0.1154861E-006  0.2000029E+02  0.7818608E-02  0.1745322E+00
         -4   -1    0    0    0  501 -0.00000000000E+00  0.00000000000E+00  0.61863736446E+02  0.61880031408E+02  0.14200000000E+01 0. -1.
          4   -1    0    0  501    0  0.00000000000E+00 -0.00000000000E+00 -0.12848826612E+01  0.19150257056E+01  0.14200000000E+01 0.  1.
       1023    2    1    2    0    0  0.00000000000E+00  0.00000000000E+00  0.60578853785E+02  0.63795057113E+02  0.20000294654E+02 0.  0.
        -11    1    3    3    0    0 -0.57886446792E+01  0.81542620878E+01  0.30450463917E+02  0.32050446961E+02  0.51100000000E-03 0.  1.
         11    1    3    3    0    0  0.57886446792E+01 -0.81542620878E+01  0.30128389868E+02  0.31744610152E+02  0.51100000000E-03 0. -1.
<mgrwt>
<rscale>  0 0.20000295E+02</rscale>
<asrwt>0</asrwt>
<pdfrwt beam="2">  1        4 0.24740025E-03 0.20000295E+02</pdfrwt>
<pdfrwt beam="1">  1       -4 0.95672242E-02 0.20000295E+02</pdfrwt>
<totfact> 0.10975189E+06</totfact>
</mgrwt>
</event>
<event>
 5    1  0.1154861E-006  0.2000203E+02  0.7818608E-02  0.1745288E+00
         -4   -1    0    0    0  501 -0.00000000000E+00  0.00000000000E+00  0.81647456278E+02  0.81659803555E+02  0.14200000000E+01 0.  1.
          4   -1    0    0  501    0  0.00000000000E+00 -0.00000000000E+00 -0.79682138256E+00  0.16282887691E+01  0.14200000000E+01 0. -1.
       1023    2    1    2    0    0  0.00000000000E+00  0.00000000000E+00  0.80850634895E+02  0.83288092324E+02  0.20002028898E+02 0.  0.
        -11    1    3    3    0    0 -0.10595586339E+01  0.99442365743E+01  0.40013436651E+02  0.41244219212E+02  0.51100000000E-03 0. -1.
         11    1    3    3    0    0  0.10595586339E+01 -0.99442365743E+01  0.40837198244E+02  0.42043873112E+02  0.51100000000E-03 0.  1.
<mgrwt>
<rscale>  0 0.20002029E+02</rscale>
<asrwt>0</asrwt>
<pdfrwt beam="2">  1        4 0.18749668E-03 0.20002029E+02</pdfrwt>
<pdfrwt beam="1">  1       -4 0.12626059E-01 0.20002029E+02</pdfrwt>
<totfact> 0.10302889E+06</totfact>
</mgrwt>
</event>
<event>
 5    1  0.1154861E-006  0.2000321E+02  0.7818608E-02  0.1745264E+00
          4   -1    0    0  501    0  0.00000000000E+00  0.00000000000E+00  0.33347107621E+01  0.36244580101E+01  0.14200000000E+01 0.  1.
         -4   -1    0    0    0  501 -0.00000000000E+00 -0.00000000000E+00 -0.28440081736E+02  0.28475509638E+02  0.14200000000E+01 0. -1.
       1023    2    1    2    0    0  0.00000000000E+00  0.00000000000E+00 -0.25105370974E+02  0.32099967648E+02  0.20003206525E+02 0.  0.
        -11    1    3    3    0    0  0.50026448003E+01  0.86595900853E+01 -0.12342764028E+02  0.15885804341E+02  0.51100000000E-03 0. -1.
         11    1    3    3    0    0 -0.50026448003E+01 -0.86595900853E+01 -0.12762606946E+02  0.16214163307E+02  0.51100000000E-03 0.  1.
<mgrwt>
<rscale>  0 0.20003207E+02</rscale>
<asrwt>0</asrwt>
<pdfrwt beam="1">  1        4 0.53804592E-03 0.20003207E+02</pdfrwt>
<pdfrwt beam="2">  1       -4 0.44004105E-02 0.20003207E+02</pdfrwt>
<totfact> 0.12343344E+06</totfact>
</mgrwt>
</event>
<event>
 5    1  0.1154861E-006  0.2000031E+02  0.7818608E-02  0.1745322E+00
          4   -1    0    0  501    0  0.00000000000E+00  0.00000000000E+00  0.12963546313E+01  0.19227416181E+01  0.14200000000E+01 0. -1.
         -4   -1    0    0    0  501 -0.00000000000E+00 -0.00000000000E+00 -0.61494964018E+02  0.61511356671E+02  0.14200000000E+01 0.  1.
       1023    2    1    2    0    0  0.00000000000E+00  0.00000000000E+00 -0.60198609387E+02  0.63434098290E+02  0.20000306341E+02 0.  0.
        -11    1    3    3    0    0  0.56248736063E+01 -0.82682269806E+01 -0.30152630260E+02  0.31767654814E+02  0.51100000000E-03 0. -1.
         11    1    3    3    0    0 -0.56248736063E+01  0.82682269806E+01 -0.30045979126E+02  0.31666443476E+02  0.51100000000E-03 0.  1.
<mgrwt>
<rscale>  0 0.20000306E+02</rscale>
<asrwt>0</asrwt>
<pdfrwt beam="1">  1        4 0.24888381E-03 0.20000306E+02</pdfrwt>
<pdfrwt beam="2">  1       -4 0.95102065E-02 0.20000306E+02</pdfrwt>
<totfact> 0.10988610E+06</totfact>
</mgrwt>
</event>
<event>
 5    1  0.1177251E-006  0.2000113E+02  0.7818608E-02  0.1745306E+00
         -4   -1    0    0    0  501 -0.00000000000E+00  0.00000000000E+00  0.27653794447E+01  0.31086529998E+01  0.14200000000E+01 0. -1.
          4   -1    0    0  501    0  0.00000000000E+00 -0.00000000000E+00 -0.33692915927E+02  0.33722825855E+02  0.14200000000E+01 0.  1.
       1023    2    1    2    0    0  0.00000000000E+00  0.00000000000E+00 -0.30927536482E+02  0.36831478855E+02  0.20001133013E+02 0.  0.
        -11    1    3    3    0    0 -0.41190656418E+01 -0.91128606213E+01 -0.15500584835E+02  0.18446654465E+02  0.51100000000E-03 0.  1.
         11    1    3    3    0    0  0.41190656418E+01  0.91128606213E+01 -0.15426951648E+02  0.18384824390E+02  0.51100000000E-03 0. -1.
<mgrwt>
<rscale>  0 0.20001133E+02</rscale>
<asrwt>0</asrwt>
<pdfrwt beam="2">  1        4 0.52122317E-02 0.20001133E+02</pdfrwt>
<pdfrwt beam="1">  1       -4 0.45414944E-03 0.20001133E+02</pdfrwt>
<totfact> 0.12111326E+06</totfact>
</mgrwt>
</event>
<event>
 5    1  0.1154861E-006  0.2000469E+02  0.7818608E-02  0.1745235E+00
          4   -1    0    0  501    0  0.00000000000E+00  0.00000000000E+00  0.33836644124E+00  0.14597574622E+01  0.14200000000E+01 0.  1.
         -4   -1    0    0    0  501 -0.00000000000E+00 -0.00000000000E+00 -0.11015039067E+03  0.11015954323E+03  0.14200000000E+01 0. -1.
       1023    2    1    2    0    0  0.00000000000E+00  0.00000000000E+00 -0.10981202423E+03  0.11161930069E+03  0.20004689998E+02 0.  0.
        -11    1    3    3    0    0 -0.99202716868E+01 -0.12773957400E+01 -0.55230160927E+02  0.56128550725E+02  0.51100000000E-03 0.  1.
         11    1    3    3    0    0  0.99202716868E+01  0.12773957400E+01 -0.54581863300E+02  0.55490749966E+02  0.51100000000E-03 0. -1.
<mgrwt>
<rscale>  0 0.20004690E+02</rscale>
<asrwt>0</asrwt>
<pdfrwt beam="1">  1        4 0.13902135E-03 0.20004690E+02</pdfrwt>
<pdfrwt beam="2">  1       -4 0.17033168E-01 0.20004690E+02</pdfrwt>
<totfact> 0.94777812E+05</totfact>
</mgrwt>
</event>
<event>
 5    1  0.1154861E-006  0.2000058E+02  0.7818608E-02  0.1745317E+00
          4   -1    0    0  501    0  0.00000000000E+00  0.00000000000E+00  0.23597617103E+01  0.27540652369E+01  0.14200000000E+01 0.  1.
         -4   -1    0    0    0  501 -0.00000000000E+00 -0.00000000000E+00 -0.38703576260E+02  0.38729616772E+02  0.14200000000E+01 0. -1.
       1023    2    1    2    0    0  0.00000000000E+00  0.00000000000E+00 -0.36343814550E+02  0.41483682009E+02  0.20000575417E+02 0.  0.
        -11    1    3    3    0    0 -0.73002453939E+01  0.68342487848E+01 -0.18321686162E+02  0.20873062146E+02  0.51100000000E-03 0. -1.
         11    1    3    3    0    0  0.73002453939E+01 -0.68342487848E+01 -0.18022128388E+02  0.20610619863E+02  0.51100000000E-03 0.  1.
<mgrwt>
<rscale>  0 0.20000575E+02</rscale>
<asrwt>0</asrwt>
<pdfrwt beam="1">  1        4 0.39537445E-03 0.20000575E+02</pdfrwt>
<pdfrwt beam="2">  1       -4 0.59867301E-02 0.20000575E+02</pdfrwt>
<totfact> 0.11893415E+06</totfact>
</mgrwt>
</event>
<event>
 5    1  0.1154861E-006  0.2000811E+02  0.7818608E-02  0.1745167E+00
         -4   -1    0    0    0  501 -0.00000000000E+00  0.00000000000E+00  0.10085097767E+03  0.10086097410E+03  0.14200000000E+01 0. -1.
          4   -1    0    0  501    0  0.00000000000E+00 -0.00000000000E+00 -0.46910975665E+00  0.14954811814E+01  0.14200000000E+01 0.  1.
       1023    2    1    2    0    0  0.00000000000E+00  0.00000000000E+00  0.10038186791E+03  0.10235645528E+03  0.20008111670E+02 0.  0.
        -11    1    3    3    0    0 -0.43511286386E+01  0.90081673260E+01  0.49977914582E+02  0.50969317684E+02  0.51100000000E-03 0. -1.
         11    1    3    3    0    0  0.43511286386E+01 -0.90081673260E+01  0.50403953330E+02  0.51387137598E+02  0.51100000000E-03 0.  1.
<mgrwt>
<rscale>  0 0.20008112E+02</rscale>
<asrwt>0</asrwt>
<pdfrwt beam="2">  1        4 0.15189136E-03 0.20008112E+02</pdfrwt>
<pdfrwt beam="1">  1       -4 0.15595253E-01 0.20008112E+02</pdfrwt>
<totfact> 0.97267909E+05</totfact>
</mgrwt>
</event>
<event>
 5    1  0.1154861E-006  0.2000008E+02  0.7818608E-02  0.1745327E+00
          4   -1    0    0  501    0  0.00000000000E+00  0.00000000000E+00  0.86879483616E+02  0.86891087422E+02  0.14200000000E+01 0.  1.
         -4   -1    0    0    0  501 -0.00000000000E+00 -0.00000000000E+00 -0.69686089668E+00  0.15817759352E+01  0.14200000000E+01 0. -1.
       1023    2    1    2    0    0  0.00000000000E+00  0.00000000000E+00  0.86182622719E+02  0.88472863357E+02  0.20000077296E+02 0.  0.
        -11    1    3    3    0    0 -0.60413514590E+01 -0.79688613875E+01  0.43048551224E+02  0.44194778448E+02  0.51100000000E-03 0.  1.
         11    1    3    3    0    0  0.60413514590E+01  0.79688613875E+01  0.43134071495E+02  0.44278084909E+02  0.51100000000E-03 0. -1.
<mgrwt>
<rscale>  0 0.20000077E+02</rscale>
<asrwt>0</asrwt>
<pdfrwt beam="1">  1        4 0.13435040E-01 0.20000077E+02</pdfrwt>
<pdfrwt beam="2">  1       -4 0.17617233E-03 0.20000077E+02</pdfrwt>
<totfact> 0.10142391E+06</totfact>
</mgrwt>
</event>
<event>
 4    1  0.1154861E-006  0.2010260E+02  0.7818608E-02  0.1743295E+00
         -4   -1    0    0    0  501 -0.00000000000E+00  0.00000000000E+00  0.35415133376E+02  0.35443590000E+02  0.14200000000E+01 0. -1.
          4   -1    0    0  501    0  0.00000000000E+00 -0.00000000000E+00 -0.26444548766E+01  0.30015898445E+01  0.14200000000E+01 0.  1.
        -11    1    1    2    0    0 -0.20151911246E+01  0.98218253602E+01  0.17736794910E+02  0.20374570980E+02  0.51100000000E-03 0. -1.
         11    1    1    2    0    0  0.20151911246E+01 -0.98218253602E+01  0.15033883590E+02  0.18070608864E+02  0.51100000000E-03 0.  1.
<mgrwt>
<rscale>  0 0.20102599E+02</rscale>
<asrwt>0</asrwt>
<pdfrwt beam="2">  1        4 0.43650008E-03 0.20102599E+02</pdfrwt>
<pdfrwt beam="1">  1       -4 0.54781432E-02 0.20102599E+02</pdfrwt>
<totfact> 0.11911438E+06</totfact>
</mgrwt>
</event>
<event>
 5    1  0.1154861E-006  0.2000145E+02  0.7818608E-02  0.1745299E+00
          4   -1    0    0  501    0  0.00000000000E+00  0.00000000000E+00  0.34727475535E+02  0.34756495178E+02  0.14200000000E+01 0.  1.
         -4   -1    0    0    0  501 -0.00000000000E+00 -0.00000000000E+00 -0.26727879473E+01  0.30265814727E+01  0.14200000000E+01 0. -1.
       1023    2    1    2    0    0  0.00000000000E+00  0.00000000000E+00  0.32054687588E+02  0.37783076651E+02  0.20001447068E+02 0.  0.
        -11    1    3    3    0    0 -0.70744730790E+01  0.70681875197E+01  0.15868995180E+02  0.18757197350E+02  0.51100000000E-03 0.  1.
         11    1    3    3    0    0  0.70744730790E+01 -0.70681875197E+01  0.16185692408E+02  0.19025879301E+02  0.51100000000E-03 0. -1.
<mgrwt>
<rscale>  0 0.20001447E+02</rscale>
<asrwt>0</asrwt>
<pdfrwt beam="1">  1        4 0.53721356E-02 0.20001447E+02</pdfrwt>
<pdfrwt beam="2">  1       -4 0.44064532E-03 0.20001447E+02</pdfrwt>
<totfact> 0.12065303E+06</totfact>
</mgrwt>
</event>
<event>
 5    1  0.1154861E-006  0.2000028E+02  0.7818608E-02  0.1745323E+00
         -4   -1    0    0    0  501 -0.00000000000E+00  0.00000000000E+00  0.12205739621E+02  0.12288062488E+02  0.14200000000E+01 0.  1.
          4   -1    0    0  501    0  0.00000000000E+00 -0.00000000000E+00 -0.80206604442E+01  0.81453909643E+01  0.14200000000E+01 0. -1.
       1023    2    1    2    0    0  0.00000000000E+00  0.00000000000E+00  0.41850791771E+01  0.20433453452E+02  0.20000278305E+02 0.  0.
        -11    1    3    3    0    0  0.68948608544E+01  0.72431813506E+01  0.20932790581E+01  0.10216878181E+02  0.51100000000E-03 0.  1.
         11    1    3    3    0    0 -0.68948608544E+01 -0.72431813506E+01  0.20918001189E+01  0.10216575271E+02  0.51100000000E-03 0. -1.
<mgrwt>
<rscale>  0 0.20000278E+02</rscale>
<asrwt>0</asrwt>
<pdfrwt beam="2">  1        4 0.12498749E-02 0.20000278E+02</pdfrwt>
<pdfrwt beam="1">  1       -4 0.18937333E-02 0.20000278E+02</pdfrwt>
<totfact> 0.12987896E+06</totfact>
</mgrwt>
</event>
<event>
 5    1  0.1154861E-006  0.2000291E+02  0.7818608E-02  0.1745270E+00
          4   -1    0    0  501    0  0.00000000000E+00  0.00000000000E+00  0.15269908763E+01  0.20852100940E+01  0.14200000000E+01 0. -1.
         -4   -1    0    0    0  501 -0.00000000000E+00 -0.00000000000E+00 -0.54815159389E+02  0.54833549027E+02  0.14200000000E+01 0.  1.
       1023    2    1    2    0    0  0.00000000000E+00  0.00000000000E+00 -0.53288168513E+02  0.56918759121E+02  0.20002905698E+02 0.  0.
        -11    1    3    3    0    0 -0.97424234470E+01  0.22611263505E+01 -0.26531989311E+02  0.28354434645E+02  0.51100000000E-03 0.  1.
         11    1    3    3    0    0  0.97424234470E+01 -0.22611263505E+01 -0.26756179202E+02  0.28564324476E+02  0.51100000000E-03 0. -1.
<mgrwt>
<rscale>  0 0.20002906E+02</rscale>
<asrwt>0</asrwt>
<pdfrwt beam="1">  1        4 0.27927624E-03 0.20002906E+02</pdfrwt>
<pdfrwt beam="2">  1       -4 0.84774547E-02 0.20002906E+02</pdfrwt>
<totfact> 0.11235349E+06</totfact>
</mgrwt>
</event>
<event>
 5    1  0.1198347E-006  0.2000105E+02  0.7818608E-02  0.1745307E+00
         -4   -1    0    0    0  501 -0.00000000000E+00  0.00000000000E+00  0.19774488125E+02  0.19825407451E+02  0.14200000000E+01 0. -1.
          4   -1    0    0  501    0  0.00000000000E+00 -0.00000000000E+00 -0.48991822364E+01  0.51008221480E+01  0.14200000000E+01 0.  1.
       1023    2    1    2    0    0  0.00000000000E+00  0.00000000000E+00  0.14875305888E+02  0.24926229599E+02  0.20001054891E+02 0.  0.
        -11    1    3    3    0    0 -0.58985645511E+01 -0.80753159609E+01  0.75400977777E+01  0.12524251131E+02  0.51100000000E-03 0. -1.
         11    1    3    3    0    0  0.58985645511E+01  0.80753159609E+01  0.73352081104E+01  0.12401978468E+02  0.51100000000E-03 0.  1.
<mgrwt>
<rscale>  0 0.20001055E+02</rscale>
<asrwt>0</asrwt>
<pdfrwt beam="2">  1        4 0.77314799E-03 0.20001055E+02</pdfrwt>
<pdfrwt beam="1">  1       -4 0.30616565E-02 0.20001055E+02</pdfrwt>
<totfact> 0.12728348E+06</totfact>
</mgrwt>
</event>
<event>
 5    1  0.1154861E-006  0.2000020E+02  0.7818608E-02  0.1745324E+00
         -4   -1    0    0    0  501 -0.00000000000E+00  0.00000000000E+00  0.40576438037E+01  0.42989386176E+01  0.14200000000E+01 0.  1.
          4   -1    0    0  501    0  0.00000000000E+00 -0.00000000000E+00 -0.23670509441E+02  0.23713064272E+02  0.14200000000E+01 0. -1.
       1023    2    1    2    0    0  0.00000000000E+00  0.00000000000E+00 -0.19612865637E+02  0.28012002890E+02  0.20000195184E+02 0.  0.
        -11    1    3    3    0    0  0.40842268605E+01 -0.91279959189E+01 -0.97685121207E+01  0.13979450914E+02  0.51100000000E-03 0.  1.
         11    1    3    3    0    0 -0.40842268605E+01  0.91279959189E+01 -0.98443535163E+01  0.14032551976E+02  0.51100000000E-03 0. -1.
<mgrwt>
<rscale>  0 0.20000195E+02</rscale>
<asrwt>0</asrwt>
<pdfrwt beam="2">  1        4 0.36634514E-02 0.20000195E+02</pdfrwt>
<pdfrwt beam="1">  1       -4 0.64608749E-03 0.20000195E+02</pdfrwt>
<totfact> 0.12560658E+06</totfact>
</mgrwt>
</event>
<event>
 5    1  0.1154861E-006  0.2000183E+02  0.7818608E-02  0.1745292E+00
          4   -1    0    0  501    0  0.00000000000E+00  0.00000000000E+00  0.32839563729E+01  0.35778162976E+01  0.14200000000E+01 0.  1.
         -4   -1    0    0    0  501 -0.00000000000E+00 -0.00000000000E+00 -0.28840232706E+02  0.28875169654E+02  0.14200000000E+01 0. -1.
       1023    2    1    2    0    0  0.00000000000E+00  0.00000000000E+00 -0.25556276333E+02  0.32452985951E+02  0.20001825845E+02 0.  0.
        -11    1    3    3    0    0  0.79599137258E+01 -0.60531490249E+01 -0.12563996379E+02  0.16057859288E+02  0.51100000000E-03 0.  1.
         11    1    3    3    0    0 -0.79599137258E+01  0.60531490249E+01 -0.12992279953E+02  0.16395126663E+02  0.51100000000E-03 0. -1.
<mgrwt>
<rscale>  0 0.20001826E+02</rscale>
<asrwt>0</asrwt>
<pdfrwt beam="1">  1        4 0.53051614E-03 0.20001826E+02</pdfrwt>
<pdfrwt beam="2">  1       -4 0.44622508E-02 0.20001826E+02</pdfrwt>
<totfact> 0.12327108E+06</totfact>
</mgrwt>
</event>
<event>
 5    1  0.1181787E-006  0.2000165E+02  0.7818608E-02  0.1745295E+00
         -4   -1    0    0    0  501 -0.00000000000E+00  0.00000000000E+00  0.36883074376E+02  0.36910399285E+02  0.14200000000E+01 0.  1.
          4   -1    0    0  501    0  0.00000000000E+00 -0.00000000000E+00 -0.24954563468E+01  0.28711848388E+01  0.14200000000E+01 0. -1.
       1023    2    1    2    0    0  0.00000000000E+00  0.00000000000E+00  0.34387618029E+02  0.39781584124E+02  0.20001653975E+02 0.  0.
        -11    1    3    3    0    0  0.98595590714E+01 -0.16713481720E+01  0.16973852904E+02  0.19700659696E+02  0.51100000000E-03 0. -1.
         11    1    3    3    0    0 -0.98595590714E+01  0.16713481720E+01  0.17413765125E+02  0.20080924428E+02  0.51100000000E-03 0.  1.
<mgrwt>
<rscale>  0 0.20001654E+02</rscale>
<asrwt>0</asrwt>
<pdfrwt beam="2">  1        4 0.41492049E-03 0.20001654E+02</pdfrwt>
<pdfrwt beam="1">  1       -4 0.57053229E-02 0.20001654E+02</pdfrwt>
<totfact> 0.11970783E+06</totfact>
</mgrwt>
</event>
<event>
 5    1  0.1154861E-006  0.2000035E+02  0.7818608E-02  0.1745321E+00
          4   -1    0    0  501    0  0.00000000000E+00  0.00000000000E+00  0.17873859388E+01  0.22827940105E+01  0.14200000000E+01 0. -1.
         -4   -1    0    0    0  501 -0.00000000000E+00 -0.00000000000E+00 -0.48632561290E+02  0.48653287840E+02  0.14200000000E+01 0.  1.
       1023    2    1    2    0    0  0.00000000000E+00  0.00000000000E+00 -0.46845175351E+02  0.50936081850E+02  0.20000349511E+02 0.  0.
        -11    1    3    3    0    0  0.99883063163E+01 -0.48659196826E+00 -0.23477213851E+02  0.25518279826E+02  0.51100000000E-03 0.  1.
         11    1    3    3    0    0 -0.99883063163E+01  0.48659196826E+00 -0.23367961500E+02  0.25417802024E+02  0.51100000000E-03 0. -1.
<mgrwt>
<rscale>  0 0.20000350E+02</rscale>
<asrwt>0</asrwt>
<pdfrwt beam="1">  1        4 0.31468515E-03 0.20000350E+02</pdfrwt>
<pdfrwt beam="2">  1       -4 0.75216343E-02 0.20000350E+02</pdfrwt>
<totfact> 0.11480623E+06</totfact>
</mgrwt>
</event>
<event>
 4    1  0.1154861E-006  0.2038488E+02  0.7818608E-02  0.1737781E+00
          4   -1    0    0  501    0  0.00000000000E+00  0.00000000000E+00  0.15255376906E+02  0.15321322545E+02  0.14200000000E+01 0. -1.
         -4   -1    0    0    0  501 -0.00000000000E+00 -0.00000000000E+00 -0.66540759882E+01  0.68039052945E+01  0.14200000000E+01 0.  1.
        -11    1    1    2    0    0 -0.10008791049E+02 -0.19226099840E+01  0.44267814803E+01  0.11111648031E+02  0.51100000000E-03 0.  1.
         11    1    1    2    0    0  0.10008791049E+02  0.19226099840E+01  0.41745194373E+01  0.11013579809E+02  0.51100000000E-03 0. -1.
<mgrwt>
<rscale>  0 0.20384880E+02</rscale>
<asrwt>0</asrwt>
<pdfrwt beam="1">  1        4 0.23635791E-02 0.20384880E+02</pdfrwt>
<pdfrwt beam="2">  1       -4 0.10403021E-02 0.20384880E+02</pdfrwt>
<totfact> 0.12395334E+06</totfact>
</mgrwt>
</event>
<event>
 5    1  0.1168414E-006  0.2000070E+02  0.7818608E-02  0.1745314E+00
         -4   -1    0    0    0  501 -0.00000000000E+00  0.00000000000E+00  0.19413268863E+02  0.19465133134E+02  0.14200000000E+01 0. -1.
          4   -1    0    0  501    0  0.00000000000E+00 -0.00000000000E+00 -0.49936240349E+01  0.51915971533E+01  0.14200000000E+01 0.  1.
       1023    2    1    2    0    0  0.00000000000E+00  0.00000000000E+00  0.14419644828E+02  0.24656730288E+02  0.20000704775E+02 0.  0.
        -11    1    3    3    0    0 -0.72398765405E+01  0.68983503020E+01  0.72877755664E+01  0.12373953377E+02  0.51100000000E-03 0. -1.
         11    1    3    3    0    0  0.72398765405E+01 -0.68983503020E+01  0.71318692613E+01  0.12282776910E+02  0.51100000000E-03 0.  1.
<mgrwt>
<rscale>  0 0.20000705E+02</rscale>
<asrwt>0</asrwt>
<pdfrwt beam="2">  1        4 0.78746812E-03 0.20000705E+02</pdfrwt>
<pdfrwt beam="1">  1       -4 0.30058750E-02 0.20000705E+02</pdfrwt>
<totfact> 0.12743886E+06</totfact>
</mgrwt>
</event>
<event>
 5    1  0.1154861E-006  0.2000039E+02  0.7818608E-02  0.1745320E+00
          4   -1    0    0  501    0  0.00000000000E+00  0.00000000000E+00  0.13517943400E+01  0.19605478667E+01  0.14200000000E+01 0.  1.
         -4   -1    0    0    0  501 -0.00000000000E+00 -0.00000000000E+00 -0.59763853081E+02  0.59780720430E+02  0.14200000000E+01 0. -1.
       1023    2    1    2    0    0  0.00000000000E+00  0.00000000000E+00 -0.58412058741E+02  0.61741268297E+02  0.20000390108E+02 0.  0.
        -11    1    3    3    0    0  0.99985256313E+01 -0.17614999911E+00 -0.29056151157E+02  0.30728837660E+02  0.51100000000E-03 0. -1.
         11    1    3    3    0    0 -0.99985256313E+01  0.17614999911E+00 -0.29355907584E+02  0.31012430637E+02  0.51100000000E-03 0.  1.
<mgrwt>
<rscale>  0 0.20000390E+02</rscale>
<asrwt>0</asrwt>
<pdfrwt beam="1">  1        4 0.25609309E-03 0.20000390E+02</pdfrwt>
<pdfrwt beam="2">  1       -4 0.92425619E-02 0.20000390E+02</pdfrwt>
<totfact> 0.11052071E+06</totfact>
</mgrwt>
</event>
<event>
 5    1  0.1154861E-006  0.2000252E+02  0.7818608E-02  0.1745278E+00
         -4   -1    0    0    0  501 -0.00000000000E+00  0.00000000000E+00  0.26290188169E+02  0.26328509148E+02  0.14200000000E+01 0. -1.
          4   -1    0    0  501    0  0.00000000000E+00 -0.00000000000E+00 -0.36295253004E+01  0.38974163117E+01  0.14200000000E+01 0.  1.
       1023    2    1    2    0    0  0.00000000000E+00  0.00000000000E+00  0.22660662869E+02  0.30225925460E+02  0.20002523047E+02 0.  0.
        -11    1    3    3    0    0  0.86210290425E+01 -0.50685237335E+01  0.11157000212E+02  0.14983014669E+02  0.51100000000E-03 0.  1.
         11    1    3    3    0    0 -0.86210290425E+01  0.50685237335E+01  0.11503662656E+02  0.15242910790E+02  0.51100000000E-03 0. -1.
<mgrwt>
<rscale>  0 0.20002523E+02</rscale>
<asrwt>0</asrwt>
<pdfrwt beam="2">  1        4 0.58194330E-03 0.20002523E+02</pdfrwt>
<pdfrwt beam="1">  1       -4 0.40681989E-02 0.20002523E+02</pdfrwt>
<totfact> 0.12440768E+06</totfact>
</mgrwt>
</event>
<event>
 4    1  0.1154861E-006  0.2212678E+02  0.7818608E-02  0.1706069E+00
          4   -1    0    0  501    0  0.00000000000E+00  0.00000000000E+00  0.97399560829E+01  0.98429235747E+01  0.14200000000E+01 0.  1.
         -4   -1    0    0    0  501 -0.00000000000E+00 -0.00000000000E+00 -0.12356733685E+02  0.12438057218E+02  0.14200000000E+01 0. -1.
        -11    1    1    2    0    0 -0.38907192305E+01 -0.10356686036E+02 -0.13066503658E+01  0.11140286227E+02  0.51100000000E-03 0. -1.
         11    1    1    2    0    0  0.38907192305E+01  0.10356686036E+02 -0.13101272360E+01  0.11140694566E+02  0.51100000000E-03 0.  1.
<mgrwt>
<rscale>  0 0.22126784E+02</rscale>
<asrwt>0</asrwt>
<pdfrwt beam="1">  1        4 0.15126310E-02 0.22126784E+02</pdfrwt>
<pdfrwt beam="2">  1       -4 0.19152122E-02 0.22126784E+02</pdfrwt>
<totfact> 0.10442296E+06</totfact>
</mgrwt>
</event>
<event>
 5    1  0.1154861E-006  0.2000119E+02  0.7818608E-02  0.1745304E+00
         -4   -1    0    0    0  501 -0.00000000000E+00  0.00000000000E+00  0.36740692183E+00  0.14667610051E+01  0.14200000000E+01 0.  1.
          4   -1    0    0  501    0  0.00000000000E+00 -0.00000000000E+00 -0.10794741974E+03  0.10795675906E+03  0.14200000000E+01 0. -1.
       1023    2    1    2    0    0  0.00000000000E+00  0.00000000000E+00 -0.10758001281E+03  0.10942352007E+03  0.20001189647E+02 0.  0.
        -11    1    3    3    0    0 -0.68057853575E+00  0.99773038850E+01 -0.53538311538E+02  0.54464305582E+02  0.51100000000E-03 0.  1.
         11    1    3    3    0    0  0.68057853575E+00 -0.99773038850E+01 -0.54041701275E+02  0.54959214486E+02  0.51100000000E-03 0. -1.
<mgrwt>
<rscale>  0 0.20001190E+02</rscale>
<asrwt>0</asrwt>
<pdfrwt beam="2">  1        4 0.16692569E-01 0.20001190E+02</pdfrwt>
<pdfrwt beam="1">  1       -4 0.14180834E-03 0.20001190E+02</pdfrwt>
<totfact> 0.95396172E+05</totfact>
</mgrwt>
</event>
<event>
 4    1  0.1154861E-006  0.2015696E+02  0.7818608E-02  0.1742225E+00
         -4   -1    0    0    0  501 -0.00000000000E+00  0.00000000000E+00  0.19961731749E+02  0.20012174655E+02  0.14200000000E+01 0.  1.
          4   -1    0    0  501    0  0.00000000000E+00 -0.00000000000E+00 -0.49313446288E+01  0.51317209440E+01  0.14200000000E+01 0. -1.
        -11    1    1    2    0    0  0.28649130840E+00  0.10074358652E+02  0.74765955724E+01  0.12548874895E+02  0.51100000000E-03 0. -1.
         11    1    1    2    0    0 -0.28649130840E+00 -0.10074358652E+02  0.75537915476E+01  0.12595020704E+02  0.51100000000E-03 0.  1.
<mgrwt>
<rscale>  0 0.20156958E+02</rscale>
<asrwt>0</asrwt>
<pdfrwt beam="2">  1        4 0.77796220E-03 0.20156958E+02</pdfrwt>
<pdfrwt beam="1">  1       -4 0.30903294E-02 0.20156958E+02</pdfrwt>
<totfact> 0.12516531E+06</totfact>
</mgrwt>
</event>
<event>
 5    1  0.1154861E-006  0.2000497E+02  0.7818608E-02  0.1745229E+00
          4   -1    0    0  501    0  0.00000000000E+00  0.00000000000E+00  0.13495716646E+02  0.13570216202E+02  0.14200000000E+01 0.  1.
         -4   -1    0    0    0  501 -0.00000000000E+00 -0.00000000000E+00 -0.72494648267E+01  0.73872281861E+01  0.14200000000E+01 0. -1.
       1023    2    1    2    0    0  0.00000000000E+00  0.00000000000E+00  0.62462518189E+01  0.20957444388E+02  0.20004969720E+02 0.  0.
        -11    1    3    3    0    0 -0.99922584066E+01  0.43033634965E+00  0.32686107969E+01  0.10522083170E+02  0.51100000000E-03 0. -1.
         11    1    3    3    0    0  0.99922584066E+01 -0.43033634965E+00  0.29776410220E+01  0.10435361218E+02  0.51100000000E-03 0.  1.
<mgrwt>
<rscale>  0 0.20004970E+02</rscale>
<asrwt>0</asrwt>
<pdfrwt beam="1">  1        4 0.20925920E-02 0.20004970E+02</pdfrwt>
<pdfrwt beam="2">  1       -4 0.11316302E-02 0.20004970E+02</pdfrwt>
<totfact> 0.12950696E+06</totfact>
</mgrwt>
</event>
<event>
 5    1  0.1154861E-006  0.2000016E+02  0.7818608E-02  0.1745325E+00
         -4   -1    0    0    0  501 -0.00000000000E+00  0.00000000000E+00  0.77527436704E+01  0.78817151952E+01  0.14200000000E+01 0.  1.
          4   -1    0    0  501    0  0.00000000000E+00 -0.00000000000E+00 -0.12623355724E+02  0.12702972476E+02  0.14200000000E+01 0.  1.
       1023    2    1    2    0    0  0.00000000000E+00  0.00000000000E+00 -0.48706120534E+01  0.20584687671E+02  0.20000162618E+02 0.  0.
        -11    1    3    3    0    0 -0.58597974203E+01  0.81032794945E+01 -0.24718624513E+01  0.10300993574E+02  0.51100000000E-03 0.  1.
         11    1    3    3    0    0  0.58597974203E+01 -0.81032794945E+01 -0.23987496021E+01  0.10283694097E+02  0.51100000000E-03 0. -1.
<mgrwt>
<rscale>  0 0.20000163E+02</rscale>
<asrwt>0</asrwt>
<pdfrwt beam="2">  1        4 0.19581000E-02 0.20000163E+02</pdfrwt>
<pdfrwt beam="1">  1       -4 0.12087750E-02 0.20000163E+02</pdfrwt>
<totfact> 0.12979096E+06</totfact>
</mgrwt>
</event>
<event>
 5    1  0.1192064E-006  0.2000101E+02  0.7818608E-02  0.1745308E+00
         -4   -1    0    0    0  501 -0.00000000000E+00  0.00000000000E+00  0.15615201714E+02  0.15679634070E+02  0.14200000000E+01 0.  1.
          4   -1    0    0  501    0  0.00000000000E+00 -0.00000000000E+00 -0.62472032342E+01  0.64065551000E+01  0.14200000000E+01 0. -1.
       1023    2    1    2    0    0  0.00000000000E+00  0.00000000000E+00  0.93679984795E+01  0.22086189170E+02  0.20001008888E+02 0.  0.
        -11    1    3    3    0    0  0.61550894903E+01  0.78819220524E+01  0.47020427670E+01  0.11050747862E+02  0.51100000000E-03 0.  1.
         11    1    3    3    0    0 -0.61550894903E+01 -0.78819220524E+01  0.46659557125E+01  0.11035441307E+02  0.51100000000E-03 0. -1.
<mgrwt>
<rscale>  0 0.20001009E+02</rscale>
<asrwt>0</asrwt>
<pdfrwt beam="2">  1        4 0.97832237E-03 0.20001009E+02</pdfrwt>
<pdfrwt beam="1">  1       -4 0.24195529E-02 0.20001009E+02</pdfrwt>
<totfact> 0.12889898E+06</totfact>
</mgrwt>
</event>
<event>
 5    1  0.1176085E-006  0.2000090E+02  0.7818608E-02  0.1745310E+00
         -4   -1    0    0    0  501 -0.00000000000E+00  0.00000000000E+00  0.27011478417E+01  0.30516552333E+01  0.14200000000E+01 0.  1.
          4   -1    0    0  501    0  0.00000000000E+00 -0.00000000000E+00 -0.34402741914E+02  0.34432035246E+02  0.14200000000E+01 0. -1.
       1023    2    1    2    0    0  0.00000000000E+00  0.00000000000E+00 -0.31701594072E+02  0.37483690480E+02  0.20000899611E+02 0.  0.
        -11    1    3    3    0    0 -0.98515128232E+01  0.17170648131E+01 -0.16022352168E+02  0.18886936908E+02  0.51100000000E-03 0. -1.
         11    1    3    3    0    0  0.98515128232E+01 -0.17170648131E+01 -0.15679241904E+02  0.18596753572E+02  0.51100000000E-03 0.  1.
<mgrwt>
<rscale>  0 0.20000900E+02</rscale>
<asrwt>0</asrwt>
<pdfrwt beam="2">  1        4 0.53219447E-02 0.20000900E+02</pdfrwt>
<pdfrwt beam="1">  1       -4 0.44477667E-03 0.20000900E+02</pdfrwt>
<totfact> 0.12080278E+06</totfact>
</mgrwt>
</event>
<event>
 5    1  0.1166798E-006  0.2000247E+02  0.7818608E-02  0.1745279E+00
          4   -1    0    0  501    0  0.00000000000E+00  0.00000000000E+00  0.45311501796E+01  0.47484441610E+01  0.14200000000E+01 0. -1.
         -4   -1    0    0    0  501 -0.00000000000E+00 -0.00000000000E+00 -0.21316530150E+02  0.21363774424E+02  0.14200000000E+01 0.  1.
       1023    2    1    2    0    0  0.00000000000E+00  0.00000000000E+00 -0.16785379971E+02  0.26112218585E+02  0.20002474314E+02 0.  0.
        -11    1    3    3    0    0  0.33635921350E+01  0.94180192851E+01 -0.82502517247E+01  0.12964547547E+02  0.51100000000E-03 0.  1.
         11    1    3    3    0    0 -0.33635921350E+01 -0.94180192851E+01 -0.85351282460E+01  0.13147671039E+02  0.51100000000E-03 0. -1.
<mgrwt>
<rscale>  0 0.20002474E+02</rscale>
<asrwt>0</asrwt>
<pdfrwt beam="1">  1        4 0.71744914E-03 0.20002474E+02</pdfrwt>
<pdfrwt beam="2">  1       -4 0.32998152E-02 0.20002474E+02</pdfrwt>
<totfact> 0.12660807E+06</totfact>
</mgrwt>
</event>
<event>
 5    1  0.1154861E-006  0.2000114E+02  0.7818608E-02  0.1745305E+00
         -4   -1    0    0    0  501 -0.00000000000E+00  0.00000000000E+00  0.71257808879E+02  0.71271956100E+02  0.14200000000E+01 0. -1.
          4   -1    0    0  501    0  0.00000000000E+00 -0.00000000000E+00 -0.10263199788E+01  0.17520652667E+01  0.14200000000E+01 0.  1.
       1023    2    1    2    0    0  0.00000000000E+00  0.00000000000E+00  0.70231488900E+02  0.73024021366E+02  0.20001141551E+02 0.  0.
        -11    1    3    3    0    0 -0.22092605794E+01  0.97534881702E+01  0.35142017176E+02  0.36537278706E+02  0.51100000000E-03 0.  1.
         11    1    3    3    0    0  0.22092605794E+01 -0.97534881702E+01  0.35089471724E+02  0.36486742660E+02  0.51100000000E-03 0. -1.
<mgrwt>
<rscale>  0 0.20001142E+02</rscale>
<asrwt>0</asrwt>
<pdfrwt beam="2">  1        4 0.21481024E-03 0.20001142E+02</pdfrwt>
<pdfrwt beam="1">  1       -4 0.11019652E-01 0.20001142E+02</pdfrwt>
<totfact> 0.10644100E+06</totfact>
</mgrwt>
</event>
<event>
 4    1  0.1154861E-006  0.2001277E+02  0.7818608E-02  0.1745074E+00
          4   -1    0    0  501    0  0.00000000000E+00  0.00000000000E+00  0.36420844031E+01  0.39091148358E+01  0.14200000000E+01 0.  1.
         -4   -1    0    0    0  501 -0.00000000000E+00 -0.00000000000E+00 -0.26232789104E+02  0.26271193810E+02  0.14200000000E+01 0. -1.
        -11    1    1    2    0    0 -0.94324540931E+01  0.33392524425E+01 -0.11411925927E+02  0.15177412517E+02  0.51100000000E-03 0.  1.
         11    1    1    2    0    0  0.94324540931E+01 -0.33392524425E+01 -0.11178778775E+02  0.15002896129E+02  0.51100000000E-03 0. -1.
<mgrwt>
<rscale>  0 0.20012773E+02</rscale>
<asrwt>0</asrwt>
<pdfrwt beam="1">  1        4 0.58381570E-03 0.20012773E+02</pdfrwt>
<pdfrwt beam="2">  1       -4 0.40593086E-02 0.20012773E+02</pdfrwt>
<totfact> 0.12430197E+06</totfact>
</mgrwt>
</event>
<event>
 5    1  0.1154861E-006  0.2000276E+02  0.7818608E-02  0.1745273E+00
         -4   -1    0    0    0  501 -0.00000000000E+00  0.00000000000E+00  0.10190516949E+01  0.17478175983E+01  0.14200000000E+01 0. -1.
          4   -1    0    0  501    0  0.00000000000E+00 -0.00000000000E+00 -0.71566137370E+02  0.71580223651E+02  0.14200000000E+01 0.  1.
       1023    2    1    2    0    0  0.00000000000E+00  0.00000000000E+00 -0.70547085675E+02  0.73328041250E+02  0.20002758218E+02 0.  0.
        -11    1    3    3    0    0 -0.56438445184E+00 -0.99846541856E+01 -0.34813698447E+02  0.36221615768E+02  0.51100000000E-03 0. -1.
         11    1    3    3    0    0  0.56438445184E+00  0.99846541856E+01 -0.35733387227E+02  0.37106425482E+02  0.51100000000E-03 0.  1.
<mgrwt>
<rscale>  0 0.20002758E+02</rscale>
<asrwt>0</asrwt>
<pdfrwt beam="2">  1        4 0.11067315E-01 0.20002758E+02</pdfrwt>
<pdfrwt beam="1">  1       -4 0.21391972E-03 0.20002758E+02</pdfrwt>
<totfact> 0.10631909E+06</totfact>
</mgrwt>
</event>
<event>
 5    1  0.1154861E-006  0.2000166E+02  0.7818608E-02  0.1745295E+00
          4   -1    0    0  501    0  0.00000000000E+00  0.00000000000E+00  0.57507253203E+00  0.15320275510E+01  0.14200000000E+01 0. -1.
         -4   -1    0    0    0  501 -0.00000000000E+00 -0.00000000000E+00 -0.93968140812E+02  0.93978869368E+02  0.14200000000E+01 0.  1.
       1023    2    1    2    0    0  0.00000000000E+00  0.00000000000E+00 -0.93393068280E+02  0.95510896919E+02  0.20001655619E+02 0.  0.
        -11    1    3    3    0    0  0.59489116475E+01  0.80389370494E+01 -0.46457874955E+02  0.47522081228E+02  0.51100000000E-03 0. -1.
         11    1    3    3    0    0 -0.59489116475E+01 -0.80389370494E+01 -0.46935193325E+02  0.47988815690E+02  0.51100000000E-03 0.  1.
<mgrwt>
<rscale>  0 0.20001656E+02</rscale>
<asrwt>0</asrwt>
<pdfrwt beam="1">  1        4 0.16290997E-03 0.20001656E+02</pdfrwt>
<pdfrwt beam="2">  1       -4 0.14531068E-01 0.20001656E+02</pdfrwt>
<totfact> 0.99293462E+05</totfact>
</mgrwt>
</event>
<event>
 4    1  0.1154861E-006  0.2003118E+02  0.7818608E-02  0.1744709E+00
          4   -1    0    0  501    0  0.00000000000E+00  0.00000000000E+00  0.28048085836E+00  0.14474354949E+01  0.14200000000E+01 0. -1.
         -4   -1    0    0    0  501 -0.00000000000E+00 -0.00000000000E+00 -0.11493325066E+03  0.11494202238E+03  0.14200000000E+01 0.  1.
        -11    1    1    2    0    0 -0.15537846561E+01 -0.98882054501E+01 -0.55303427149E+02  0.56201956447E+02  0.51100000000E-03 0.  1.
         11    1    1    2    0    0  0.15537846561E+01  0.98882054501E+01 -0.59349342655E+02  0.60187501424E+02  0.51100000000E-03 0. -1.
<mgrwt>
<rscale>  0 0.20031183E+02</rscale>
<asrwt>0</asrwt>
<pdfrwt beam="1">  1        4 0.13359148E-03 0.20031183E+02</pdfrwt>
<pdfrwt beam="2">  1       -4 0.17772467E-01 0.20031183E+02</pdfrwt>
<totfact> 0.93287371E+05</totfact>
</mgrwt>
</event>
<event>
 5    1  0.1154861E-006  0.2000092E+02  0.7818608E-02  0.1745310E+00
         -4   -1    0    0    0  501 -0.00000000000E+00  0.00000000000E+00  0.23896439648E+02  0.23938592855E+02  0.14200000000E+01 0.  1.
          4   -1    0    0  501    0  0.00000000000E+00 -0.00000000000E+00 -0.40173738458E+01  0.42609497318E+01  0.14200000000E+01 0. -1.
       1023    2    1    2    0    0  0.00000000000E+00  0.00000000000E+00  0.19879065803E+02  0.28199542587E+02  0.20000923601E+02 0.  0.
        -11    1    3    3    0    0  0.34910364359E+01  0.93712889500E+01  0.99804928508E+01  0.14128645717E+02  0.51100000000E-03 0.  1.
         11    1    3    3    0    0 -0.34910364359E+01 -0.93712889500E+01  0.98985729519E+01  0.14070896870E+02  0.51100000000E-03 0. -1.
<mgrwt>
<rscale>  0 0.20000924E+02</rscale>
<asrwt>0</asrwt>
<pdfrwt beam="2">  1        4 0.64003669E-03 0.20000924E+02</pdfrwt>
<pdfrwt beam="1">  1       -4 0.36983544E-02 0.20000924E+02</pdfrwt>
<totfact> 0.12549691E+06</totfact>
</mgrwt>
</event>
<event>
 5    1  0.1154861E-006  0.2000009E+02  0.7818608E-02  0.1745326E+00
          4   -1    0    0  501    0  0.00000000000E+00  0.00000000000E+00  0.45409623153E+02  0.45431820071E+02  0.14200000000E+01 0.  1.
         -4   -1    0    0    0  501 -0.00000000000E+00 -0.00000000000E+00 -0.19481019483E+01  0.24107055401E+01  0.14200000000E+01 0. -1.
       1023    2    1    2    0    0  0.00000000000E+00  0.00000000000E+00  0.43461521205E+02  0.47842525611E+02  0.20000085784E+02 0.  0.
        -11    1    3    3    0    0 -0.55362037828E+01  0.83276977478E+01  0.21665011176E+02  0.23861534143E+02  0.51100000000E-03 0.  1.
         11    1    3    3    0    0  0.55362037828E+01 -0.83276977478E+01  0.21796510029E+02  0.23980991468E+02  0.51100000000E-03 0. -1.
<mgrwt>
<rscale>  0 0.20000086E+02</rscale>
<asrwt>0</asrwt>
<pdfrwt beam="1">  1        4 0.70233885E-02 0.20000086E+02</pdfrwt>
<pdfrwt beam="2">  1       -4 0.33700033E-03 0.20000086E+02</pdfrwt>
<totfact> 0.11611820E+06</totfact>
</mgrwt>
</event>
<event>
 5    1  0.1154861E-006  0.2000247E+02  0.7818608E-02  0.1745279E+00
          4   -1    0    0  501    0  0.00000000000E+00  0.00000000000E+00  0.50491898730E+00  0.15070976026E+01  0.14200000000E+01 0.  1.
         -4   -1    0    0    0  501 -0.00000000000E+00 -0.00000000000E+00 -0.98417508048E+02  0.98427751627E+02  0.14200000000E+01 0. -1.
       1023    2    1    2    0    0  0.00000000000E+00  0.00000000000E+00 -0.97912589061E+02  0.99934849230E+02  0.20002474697E+02 0.  0.
        -11    1    3    3    0    0 -0.81774457929E+01 -0.57572236554E+01 -0.49417031616E+02  0.50418838323E+02  0.51100000000E-03 0. -1.
         11    1    3    3    0    0  0.81774457929E+01  0.57572236554E+01 -0.48495557445E+02  0.49516010907E+02  0.51100000000E-03 0.  1.
<mgrwt>
<rscale>  0 0.20002475E+02</rscale>
<asrwt>0</asrwt>
<pdfrwt beam="1">  1        4 0.15555855E-03 0.20002475E+02</pdfrwt>
<pdfrwt beam="2">  1       -4 0.15219026E-01 0.20002475E+02</pdfrwt>
<totfact> 0.98006860E+05</totfact>
</mgrwt>
</event>
<event>
 5    1  0.1154861E-006  0.2000025E+02  0.7818608E-02  0.1745323E+00
          4   -1    0    0  501    0  0.00000000000E+00  0.00000000000E+00  0.11973352804E+03  0.11974194811E+03  0.14200000000E+01 0. -1.
         -4   -1    0    0    0  501 -0.00000000000E+00 -0.00000000000E+00 -0.21699156401E+00  0.14364836716E+01  0.14200000000E+01 0.  1.
       1023    2    1    2    0    0  0.00000000000E+00  0.00000000000E+00  0.11951653648E+03  0.12117843178E+03  0.20000245938E+02 0.  0.
        -11    1    3    3    0    0 -0.60751358200E+01  0.79432476898E+01  0.59757072899E+02  0.60588036945E+02  0.51100000000E-03 0. -1.
         11    1    3    3    0    0  0.60751358200E+01 -0.79432476898E+01  0.59759463579E+02  0.60590394838E+02  0.51100000000E-03 0.  1.
<mgrwt>
<rscale>  0 0.20000246E+02</rscale>
<asrwt>0</asrwt>
<pdfrwt beam="1">  1        4 0.18514991E-01 0.20000246E+02</pdfrwt>
<pdfrwt beam="2">  1       -4 0.12783814E-03 0.20000246E+02</pdfrwt>
<totfact> 0.92360138E+05</totfact>
</mgrwt>
</event>
<event>
 5    1  0.1154861E-006  0.2000048E+02  0.7818608E-02  0.1745319E+00
          4   -1    0    0  501    0  0.00000000000E+00  0.00000000000E+00  0.12964526349E+01  0.19228076956E+01  0.14200000000E+01 0.  1.
         -4   -1    0    0    0  501 -0.00000000000E+00 -0.00000000000E+00 -0.61492917914E+02  0.61509311112E+02  0.14200000000E+01 0. -1.
       1023    2    1    2    0    0  0.00000000000E+00  0.00000000000E+00 -0.60196465279E+02  0.63432118808E+02  0.20000481605E+02 0.  0.
        -11    1    3    3    0    0 -0.98498558534E+01 -0.17276331967E+01 -0.30164687470E+02  0.31779124394E+02  0.51100000000E-03 0. -1.
         11    1    3    3    0    0  0.98498558534E+01  0.17276331967E+01 -0.30031777809E+02  0.31652994415E+02  0.51100000000E-03 0.  1.
<mgrwt>
<rscale>  0 0.20000482E+02</rscale>
<asrwt>0</asrwt>
<pdfrwt beam="1">  1        4 0.24889647E-03 0.20000482E+02</pdfrwt>
<pdfrwt beam="2">  1       -4 0.95098893E-02 0.20000482E+02</pdfrwt>
<totfact> 0.10988490E+06</totfact>
</mgrwt>
</event>
<event>
 5    1  0.1154861E-006  0.2000485E+02  0.7818608E-02  0.1745232E+00
         -4   -1    0    0    0  501 -0.00000000000E+00  0.00000000000E+00  0.41959292467E+02  0.41983313642E+02  0.14200000000E+01 0.  1.
          4   -1    0    0  501    0  0.00000000000E+00 -0.00000000000E+00 -0.21460206112E+01  0.25732867045E+01  0.14200000000E+01 0. -1.
       1023    2    1    2    0    0  0.00000000000E+00  0.00000000000E+00  0.39813271856E+02  0.44556600347E+02  0.20004849876E+02 0.  0.
        -11    1    3    3    0    0  0.10827590415E+01  0.99429413441E+01  0.20170686401E+02  0.22514240824E+02  0.51100000000E-03 0. -1.
         11    1    3    3    0    0 -0.10827590415E+01 -0.99429413441E+01  0.19642585455E+02  0.22042359523E+02  0.51100000000E-03 0.  1.
<mgrwt>
<rscale>  0 0.20004850E+02</rscale>
<asrwt>0</asrwt>
<pdfrwt beam="2">  1        4 0.36487146E-03 0.20004850E+02</pdfrwt>
<pdfrwt beam="1">  1       -4 0.64899896E-02 0.20004850E+02</pdfrwt>
<totfact> 0.11749700E+06</totfact>
</mgrwt>
</event>
<event>
 5    1  0.1154861E-006  0.2000146E+02  0.7818608E-02  0.1745299E+00
          4   -1    0    0  501    0  0.00000000000E+00  0.00000000000E+00  0.18404329593E+01  0.23245630725E+01  0.14200000000E+01 0. -1.
         -4   -1    0    0    0  501 -0.00000000000E+00 -0.00000000000E+00 -0.47530315841E+02  0.47551522836E+02  0.14200000000E+01 0.  1.
       1023    2    1    2    0    0  0.00000000000E+00  0.00000000000E+00 -0.45689882882E+02  0.49876085908E+02  0.20001463640E+02 0.  0.
        -11    1    3    3    0    0  0.84724533637E+01  0.53122328292E+01 -0.22567789760E+02  0.24684153187E+02  0.51100000000E-03 0. -1.
         11    1    3    3    0    0 -0.84724533637E+01 -0.53122328292E+01 -0.23122093122E+02  0.25191932721E+02  0.51100000000E-03 0.  1.
<mgrwt>
<rscale>  0 0.20001464E+02</rscale>
<asrwt>0</asrwt>
<pdfrwt beam="1">  1        4 0.32201565E-03 0.20001464E+02</pdfrwt>
<pdfrwt beam="2">  1       -4 0.73512275E-02 0.20001464E+02</pdfrwt>
<totfact> 0.11523730E+06</totfact>
</mgrwt>
</event>
<event>
 5    1  0.1154861E-006  0.2000048E+02  0.7818608E-02  0.1745318E+00
          4   -1    0    0  501    0  0.00000000000E+00  0.00000000000E+00  0.16714682805E+02  0.16774892586E+02  0.14200000000E+01 0. -1.
         -4   -1    0    0    0  501 -0.00000000000E+00 -0.00000000000E+00 -0.58266640801E+01  0.59972005387E+01  0.14200000000E+01 0.  1.
       1023    2    1    2    0    0  0.00000000000E+00  0.00000000000E+00  0.10888018725E+02  0.22772093125E+02  0.20000481832E+02 0.  0.
        -11    1    3    3    0    0 -0.54563495144E+01  0.83802537080E+01  0.55196702500E+01  0.11422222295E+02  0.51100000000E-03 0. -1.
         11    1    3    3    0    0  0.54563495144E+01 -0.83802537080E+01  0.53683484750E+01  0.11349870829E+02  0.51100000000E-03 0.  1.
<mgrwt>
<rscale>  0 0.20000482E+02</rscale>
<asrwt>0</asrwt>
<pdfrwt beam="1">  1        4 0.25892393E-02 0.20000482E+02</pdfrwt>
<pdfrwt beam="2">  1       -4 0.91415959E-03 0.20000482E+02</pdfrwt>
<totfact> 0.12851011E+06</totfact>
</mgrwt>
</event>
<event>
 5    1  0.1154861E-006  0.2000505E+02  0.7818608E-02  0.1745228E+00
          4   -1    0    0  501    0  0.00000000000E+00  0.00000000000E+00  0.46252167464E+02  0.46273960227E+02  0.14200000000E+01 0. -1.
         -4   -1    0    0    0  501 -0.00000000000E+00 -0.00000000000E+00 -0.19053210771E+01  0.23762677473E+01  0.14200000000E+01 0.  1.
       1023    2    1    2    0    0  0.00000000000E+00  0.00000000000E+00  0.44346846387E+02  0.48650227974E+02  0.20005046801E+02 0.  0.
        -11    1    3    3    0    0  0.43768231851E+01 -0.89934645346E+01  0.22434085742E+02  0.24562719492E+02  0.51100000000E-03 0. -1.
         11    1    3    3    0    0 -0.43768231851E+01  0.89934645346E+01  0.21912760645E+02  0.24087508482E+02  0.51100000000E-03 0.  1.
<mgrwt>
<rscale>  0 0.20005047E+02</rscale>
<asrwt>0</asrwt>
<pdfrwt beam="1">  1        4 0.71536208E-02 0.20005047E+02</pdfrwt>
<pdfrwt beam="2">  1       -4 0.33102937E-03 0.20005047E+02</pdfrwt>
<totfact> 0.11571465E+06</totfact>
</mgrwt>
</event>
<event>
 5    1  0.1154861E-006  0.2000087E+02  0.7818608E-02  0.1745311E+00
         -4   -1    0    0    0  501 -0.00000000000E+00  0.00000000000E+00  0.12578665774E+01  0.18970050940E+01  0.14200000000E+01 0.  1.
          4   -1    0    0  501    0  0.00000000000E+00 -0.00000000000E+00 -0.62750734900E+02  0.62766799588E+02  0.14200000000E+01 0.  1.
       1023    2    1    2    0    0  0.00000000000E+00  0.00000000000E+00 -0.61492868323E+02  0.64663804682E+02  0.20000869516E+02 0.  0.
        -11    1    3    3    0    0 -0.53538307282E+01 -0.84461723095E+01 -0.31023891949E+02  0.32595754357E+02  0.51100000000E-03 0.  1.
         11    1    3    3    0    0  0.53538307282E+01  0.84461723095E+01 -0.30468976373E+02  0.32068050325E+02  0.51100000000E-03 0. -1.
<mgrwt>
<rscale>  0 0.20000870E+02</rscale>
<asrwt>0</asrwt>
<pdfrwt beam="2">  1        4 0.97043575E-02 0.20000870E+02</pdfrwt>
<pdfrwt beam="1">  1       -4 0.24391823E-03 0.20000870E+02</pdfrwt>
<totfact> 0.10942395E+06</totfact>
</mgrwt>
</event>
<event>
 5    1  0.1154861E-006  0.2000043E+02  0.7818608E-02  0.1745320E+00
          4   -1    0    0  501    0  0.00000000000E+00  0.00000000000E+00  0.11657352119E+01  0.18372094557E+01  0.14200000000E+01 0. -1.
         -4   -1    0    0    0  501 -0.00000000000E+00 -0.00000000000E+00 -0.65923311054E+02  0.65938602808E+02  0.14200000000E+01 0.  1.
       1023    2    1    2    0    0  0.00000000000E+00  0.00000000000E+00 -0.64757575842E+02  0.67775812264E+02  0.20000427473E+02 0.  0.
        -11    1    3    3    0    0 -0.38785598402E+01 -0.92173792113E+01 -0.32484250522E+02  0.33988672204E+02  0.51100000000E-03 0. -1.
         11    1    3    3    0    0  0.38785598402E+01  0.92173792113E+01 -0.32273325320E+02  0.33787140060E+02  0.51100000000E-03 0.  1.
<mgrwt>
<rscale>  0 0.20000427E+02</rscale>
<asrwt>0</asrwt>
<pdfrwt beam="1">  1        4 0.23217208E-03 0.20000427E+02</pdfrwt>
<pdfrwt beam="2">  1       -4 0.10194874E-01 0.20000427E+02</pdfrwt>
<totfact> 0.10829568E+06</totfact>
</mgrwt>
</event>
<event>
 4    1  0.1154861E-006  0.2026579E+02  0.7818608E-02  0.1740094E+00
          4   -1    0    0  501    0  0.00000000000E+00  0.00000000000E+00  0.71513141341E+00  0.15899097265E+01  0.14200000000E+01 0.  1.
         -4   -1    0    0    0  501 -0.00000000000E+00 -0.00000000000E+00 -0.88205183940E+02  0.88216613366E+02  0.14200000000E+01 0. -1.
        -11    1    1    2    0    0 -0.50791203884E+01 -0.86781508387E+01 -0.38196331497E+02  0.39497689882E+02  0.51100000000E-03 0.  1.
         11    1    1    2    0    0  0.50791203884E+01  0.86781508387E+01 -0.49293721029E+02  0.50308833211E+02  0.51100000000E-03 0. -1.
<mgrwt>
<rscale>  0 0.20265791E+02</rscale>
<asrwt>0</asrwt>
<pdfrwt beam="1">  1        4 0.17819011E-03 0.20265791E+02</pdfrwt>
<pdfrwt beam="2">  1       -4 0.13638193E-01 0.20265791E+02</pdfrwt>
<totfact> 0.98379698E+05</totfact>
</mgrwt>
</event>
<event>
 5    1  0.1154861E-006  0.2000075E+02  0.7818608E-02  0.1745313E+00
         -4   -1    0    0    0  501 -0.00000000000E+00  0.00000000000E+00  0.13438663861E+01  0.19550899886E+01  0.14200000000E+01 0.  1.
          4   -1    0    0  501    0  0.00000000000E+00 -0.00000000000E+00 -0.60008577220E+02  0.60025375800E+02  0.14200000000E+01 0. -1.
       1023    2    1    2    0    0  0.00000000000E+00  0.00000000000E+00 -0.58664710833E+02  0.61980465789E+02  0.20000746041E+02 0.  0.
        -11    1    3    3    0    0 -0.39356118494E+01  0.91931651534E+01 -0.29531606240E+02  0.31178824442E+02  0.51100000000E-03 0. -1.
         11    1    3    3    0    0  0.39356118494E+01 -0.91931651534E+01 -0.29133104593E+02  0.30801641347E+02  0.51100000000E-03 0.  1.
<mgrwt>
<rscale>  0 0.20000746E+02</rscale>
<asrwt>0</asrwt>
<pdfrwt beam="2">  1        4 0.92803965E-02 0.20000746E+02</pdfrwt>
<pdfrwt beam="1">  1       -4 0.25505812E-03 0.20000746E+02</pdfrwt>
<totfact> 0.11042640E+06</totfact>
</mgrwt>
</event>
<event>
 5    1  0.1166470E-006  0.2000068E+02  0.7818608E-02  0.1745315E+00
          4   -1    0    0  501    0  0.00000000000E+00  0.00000000000E+00  0.55834254280E+01  0.57611665060E+01  0.14200000000E+01 0. -1.
         -4   -1    0    0    0  501 -0.00000000000E+00 -0.00000000000E+00 -0.17423660355E+02  0.17481428436E+02  0.14200000000E+01 0.  1.
       1023    2    1    2    0    0  0.00000000000E+00  0.00000000000E+00 -0.11840234927E+02  0.23242594942E+02  0.20000676401E+02 0.  0.
        -11    1    3    3    0    0  0.46883124006E+01 -0.88332513105E+01 -0.59053271574E+01  0.11613762998E+02  0.51100000000E-03 0. -1.
         11    1    3    3    0    0 -0.46883124006E+01  0.88332513105E+01 -0.59349077692E+01  0.11628831944E+02  0.51100000000E-03 0.  1.
<mgrwt>
<rscale>  0 0.20000676E+02</rscale>
<asrwt>0</asrwt>
<pdfrwt beam="1">  1        4 0.87710462E-03 0.20000676E+02</pdfrwt>
<pdfrwt beam="2">  1       -4 0.26986792E-02 0.20000676E+02</pdfrwt>
<totfact> 0.12823833E+06</totfact>
</mgrwt>
</event>
<event>
 5    1  0.1194937E-006  0.2000119E+02  0.7818608E-02  0.1745304E+00
          4   -1    0    0  501    0  0.00000000000E+00  0.00000000000E+00  0.37558469916E+01  0.40153189941E+01  0.14200000000E+01 0. -1.
         -4   -1    0    0    0  501 -0.00000000000E+00 -0.00000000000E+00 -0.25459310723E+02  0.25498880416E+02  0.14200000000E+01 0.  1.
       1023    2    1    2    0    0  0.00000000000E+00  0.00000000000E+00 -0.21703463731E+02  0.29514199410E+02  0.20001190687E+02 0.  0.
        -11    1    3    3    0    0  0.59793291455E+01 -0.80156146834E+01 -0.10708276044E+02  0.14651608508E+02  0.51100000000E-03 0. -1.
         11    1    3    3    0    0 -0.59793291455E+01  0.80156146834E+01 -0.10995187688E+02  0.14862590902E+02  0.51100000000E-03 0.  1.
<mgrwt>
<rscale>  0 0.20001191E+02</rscale>
<asrwt>0</asrwt>
<pdfrwt beam="1">  1        4 0.60082584E-03 0.20001191E+02</pdfrwt>
<pdfrwt beam="2">  1       -4 0.39398201E-02 0.20001191E+02</pdfrwt>
<totfact> 0.12479682E+06</totfact>
</mgrwt>
</event>
<event>
 5    1  0.1177172E-006  0.2000301E+02  0.7818608E-02  0.1745268E+00
          4   -1    0    0  501    0  0.00000000000E+00  0.00000000000E+00  0.18584631554E+02  0.18638801732E+02  0.14200000000E+01 0. -1.
         -4   -1    0    0    0  501 -0.00000000000E+00 -0.00000000000E+00 -0.52255201357E+01  0.54150217625E+01  0.14200000000E+01 0.  1.
       1023    2    1    2    0    0  0.00000000000E+00  0.00000000000E+00  0.13359111418E+02  0.24053823494E+02  0.20003013943E+02 0.  0.
        -11    1    3    3    0    0 -0.24470790374E+01  0.96970755466E+01  0.67915343100E+01  0.12089102883E+02  0.51100000000E-03 0. -1.
         11    1    3    3    0    0  0.24470790374E+01 -0.96970755466E+01  0.65675771083E+01  0.11964720611E+02  0.51100000000E-03 0.  1.
<mgrwt>
<rscale>  0 0.20003014E+02</rscale>
<asrwt>0</asrwt>
<pdfrwt beam="1">  1        4 0.28779181E-02 0.20003014E+02</pdfrwt>
<pdfrwt beam="2">  1       -4 0.82267016E-03 0.20003014E+02</pdfrwt>
<totfact> 0.12774802E+06</totfact>
</mgrwt>
</event>
<event>
 5    1  0.1154861E-006  0.2000010E+02  0.7818608E-02  0.1745326E+00
         -4   -1    0    0    0  501 -0.00000000000E+00  0.00000000000E+00  0.27956255558E+02  0.27992295812E+02  0.14200000000E+01 0.  1.
          4   -1    0    0  501    0  0.00000000000E+00 -0.00000000000E+00 -0.33961611511E+01  0.36810746480E+01  0.14200000000E+01 0. -1.
       1023    2    1    2    0    0  0.00000000000E+00  0.00000000000E+00  0.24560094407E+02  0.31673370460E+02  0.20000103975E+02 0.  0.
        -11    1    3    3    0    0 -0.67741053972E+01 -0.73561198381E+01  0.12270481243E+02  0.15829267614E+02  0.51100000000E-03 0.  1.
         11    1    3    3    0    0  0.67741053972E+01  0.73561198381E+01  0.12289613163E+02  0.15844102845E+02  0.51100000000E-03 0. -1.
<mgrwt>
<rscale>  0 0.20000104E+02</rscale>
<asrwt>0</asrwt>
<pdfrwt beam="2">  1        4 0.54717508E-03 0.20000104E+02</pdfrwt>
<pdfrwt beam="1">  1       -4 0.43256511E-02 0.20000104E+02</pdfrwt>
<totfact> 0.12369049E+06</totfact>
</mgrwt>
</event>
<event>
 5    1  0.1154861E-006  0.2000171E+02  0.7818608E-02  0.1745294E+00
         -4   -1    0    0    0  501 -0.00000000000E+00  0.00000000000E+00  0.19903271390E+01  0.24449544209E+01  0.14200000000E+01 0.  1.
          4   -1    0    0  501    0  0.00000000000E+00 -0.00000000000E+00 -0.44633583668E+02  0.44656166328E+02  0.14200000000E+01 0. -1.
       1023    2    1    2    0    0  0.00000000000E+00  0.00000000000E+00 -0.42643256529E+02  0.47101120748E+02  0.20001706136E+02 0.  0.
        -11    1    3    3    0    0 -0.68313628048E+01 -0.73030543337E+01 -0.21609474530E+02  0.23811163560E+02  0.51100000000E-03 0.  1.
         11    1    3    3    0    0  0.68313628048E+01  0.73030543337E+01 -0.21033782000E+02  0.23289957188E+02  0.51100000000E-03 0. -1.
<mgrwt>
<rscale>  0 0.20001706E+02</rscale>
<asrwt>0</asrwt>
<pdfrwt beam="2">  1        4 0.69034129E-02 0.20001706E+02</pdfrwt>
<pdfrwt beam="1">  1       -4 0.34291267E-03 0.20001706E+02</pdfrwt>
<totfact> 0.11641885E+06</totfact>
</mgrwt>
</event>
<event>
 5    1  0.1190099E-006  0.2000084E+02  0.7818608E-02  0.1745311E+00
          4   -1    0    0  501    0  0.00000000000E+00  0.00000000000E+00  0.58065341660E+01  0.59776449393E+01  0.14200000000E+01 0. -1.
         -4   -1    0    0    0  501 -0.00000000000E+00 -0.00000000000E+00 -0.16771786334E+02  0.16831791848E+02  0.14200000000E+01 0.  1.
       1023    2    1    2    0    0  0.00000000000E+00  0.00000000000E+00 -0.10965252168E+02  0.22809436788E+02  0.20000841269E+02 0.  0.
        -11    1    3    3    0    0 -0.14943785432E+01 -0.98877993854E+01 -0.55757554325E+01  0.11449488758E+02  0.51100000000E-03 0.  1.
         11    1    3    3    0    0  0.14943785432E+01  0.98877993854E+01 -0.53894967354E+01  0.11359948030E+02  0.51100000000E-03 0. -1.
<mgrwt>
<rscale>  0 0.20000841E+02</rscale>
<asrwt>0</asrwt>
<pdfrwt beam="1">  1        4 0.91109113E-03 0.20000841E+02</pdfrwt>
<pdfrwt beam="2">  1       -4 0.25980530E-02 0.20000841E+02</pdfrwt>
<totfact> 0.12848396E+06</totfact>
</mgrwt>
</event>
<event>
 5    1  0.1154861E-006  0.2000095E+02  0.7818608E-02  0.1745309E+00
          4   -1    0    0  501    0  0.00000000000E+00  0.00000000000E+00  0.13231932128E+01  0.19409379893E+01  0.14200000000E+01 0.  1.
         -4   -1    0    0    0  501 -0.00000000000E+00 -0.00000000000E+00 -0.60650256248E+02  0.60666877149E+02  0.14200000000E+01 0. -1.
       1023    2    1    2    0    0  0.00000000000E+00  0.00000000000E+00 -0.59327063035E+02  0.62607815138E+02  0.20000952676E+02 0.  0.
        -11    1    3    3    0    0  0.48651534655E+01  0.87372534882E+01 -0.29708889125E+02  0.31346888364E+02  0.51100000000E-03 0. -1.
         11    1    3    3    0    0 -0.48651534655E+01 -0.87372534882E+01 -0.29618173910E+02  0.31260926774E+02  0.51100000000E-03 0.  1.
<mgrwt>
<rscale>  0 0.20000953E+02</rscale>
<asrwt>0</asrwt>
<pdfrwt beam="1">  1        4 0.25236559E-03 0.20000953E+02</pdfrwt>
<pdfrwt beam="2">  1       -4 0.93796043E-02 0.20000953E+02</pdfrwt>
<totfact> 0.11018800E+06</totfact>
</mgrwt>
</event>
<event>
 5    1  0.1154861E-006  0.2000017E+02  0.7818608E-02  0.1745325E+00
          4   -1    0    0  501    0  0.00000000000E+00  0.00000000000E+00  0.32543430925E+02  0.32574396332E+02  0.14200000000E+01 0. -1.
         -4   -1    0    0    0  501 -0.00000000000E+00 -0.00000000000E+00 -0.28745594956E+01  0.32061647328E+01  0.14200000000E+01 0.  1.
       1023    2    1    2    0    0  0.00000000000E+00  0.00000000000E+00  0.29668871430E+02  0.35780561065E+02  0.20000165454E+02 0.  0.
        -11    1    3    3    0    0  0.75059639151E+01  0.66076799042E+01  0.14882648711E+02  0.17930258250E+02  0.51100000000E-03 0. -1.
         11    1    3    3    0    0 -0.75059639151E+01 -0.66076799042E+01  0.14786222719E+02  0.17850302814E+02  0.51100000000E-03 0.  1.
<mgrwt>
<rscale>  0 0.20000165E+02</rscale>
<asrwt>0</asrwt>
<pdfrwt beam="1">  1        4 0.50345717E-02 0.20000165E+02</pdfrwt>
<pdfrwt beam="2">  1       -4 0.47012997E-03 0.20000165E+02</pdfrwt>
<totfact> 0.12163505E+06</totfact>
</mgrwt>
</event>
<event>
 5    1  0.1221066E-006  0.2000112E+02  0.7818608E-02  0.1745306E+00
          4   -1    0    0  501    0  0.00000000000E+00  0.00000000000E+00  0.59348156080E+01  0.61023303992E+01  0.14200000000E+01 0.  1.
         -4   -1    0    0    0  501 -0.00000000000E+00 -0.00000000000E+00 -0.16418508410E+02  0.16479800314E+02  0.14200000000E+01 0. -1.
       1023    2    1    2    0    0  0.00000000000E+00  0.00000000000E+00 -0.10483692802E+02  0.22582130714E+02  0.20001120289E+02 0.  0.
        -11    1    3    3    0    0  0.98085037629E+01  0.19504435084E+01 -0.52588569216E+01  0.11298962445E+02  0.51100000000E-03 0.  1.
         11    1    3    3    0    0 -0.98085037629E+01 -0.19504435084E+01 -0.52248358802E+01  0.11283168269E+02  0.51100000000E-03 0. -1.
<mgrwt>
<rscale>  0 0.20001120E+02</rscale>
<asrwt>0</asrwt>
<pdfrwt beam="1">  1        4 0.93064908E-03 0.20001120E+02</pdfrwt>
<pdfrwt beam="2">  1       -4 0.25435249E-02 0.20001120E+02</pdfrwt>
<totfact> 0.12861098E+06</totfact>
</mgrwt>
</event>
<event>
 5    1  0.1154861E-006  0.2000292E+02  0.7818608E-02  0.1745270E+00
         -4   -1    0    0    0  501 -0.00000000000E+00  0.00000000000E+00  0.19842162088E+01  0.24399823695E+01  0.14200000000E+01 0. -1.
          4   -1    0    0  501    0  0.00000000000E+00 -0.00000000000E+00 -0.44750935993E+02  0.44773459462E+02  0.14200000000E+01 0.  1.
       1023    2    1    2    0    0  0.00000000000E+00  0.00000000000E+00 -0.42766719784E+02  0.47213441832E+02  0.20002919000E+02 0.  0.
        -11    1    3    3    0    0  0.37397038066E+01 -0.92755000460E+01 -0.21160609396E+02  0.23404949817E+02  0.51100000000E-03 0.  1.
         11    1    3    3    0    0 -0.37397038066E+01  0.92755000460E+01 -0.21606110388E+02  0.23808492015E+02  0.51100000000E-03 0. -1.
<mgrwt>
<rscale>  0 0.20002919E+02</rscale>
<asrwt>0</asrwt>
<pdfrwt beam="2">  1        4 0.69215502E-02 0.20002919E+02</pdfrwt>
<pdfrwt beam="1">  1       -4 0.34205558E-03 0.20002919E+02</pdfrwt>
<totfact> 0.11635603E+06</totfact>
</mgrwt>
</event>
<event>
 5    1  0.1154861E-006  0.2000048E+02  0.7818608E-02  0.1745319E+00
          4   -1    0    0  501    0  0.00000000000E+00  0.00000000000E+00  0.80570594871E+01  0.81812350888E+01  0.14200000000E+01 0.  1.
         -4   -1    0    0    0  501 -0.00000000000E+00 -0.00000000000E+00 -0.12151321023E+02  0.12234010079E+02  0.14200000000E+01 0. -1.
       1023    2    1    2    0    0  0.00000000000E+00  0.00000000000E+00 -0.40942615362E+01  0.20415245168E+02  0.20000481437E+02 0.  0.
        -11    1    3    3    0    0  0.76368242363E+01  0.64562272952E+01 -0.20172165781E+01  0.10201623316E+02  0.51100000000E-03 0.  1.
         11    1    3    3    0    0 -0.76368242363E+01 -0.64562272952E+01 -0.20770449582E+01  0.10213621851E+02  0.51100000000E-03 0. -1.
<mgrwt>
<rscale>  0 0.20000481E+02</rscale>
<asrwt>0</asrwt>
<pdfrwt beam="1">  1        4 0.12554603E-02 0.20000481E+02</pdfrwt>
<pdfrwt beam="2">  1       -4 0.18853467E-02 0.20000481E+02</pdfrwt>
<totfact> 0.12988706E+06</totfact>
</mgrwt>
</event>
<event>
 4    1  0.1154861E-006  0.2023989E+02  0.7818608E-02  0.1740599E+00
         -4   -1    0    0    0  501 -0.00000000000E+00  0.00000000000E+00  0.70833981010E+01  0.72243289416E+01  0.14200000000E+01 0.  1.
          4   -1    0    0  501    0  0.00000000000E+00 -0.00000000000E+00 -0.14138954513E+02  0.14210082151E+02  0.14200000000E+01 0. -1.
        -11    1    1    2    0    0  0.93471348679E+01 -0.38079888903E+01 -0.43085596384E+01  0.10974215054E+02  0.51100000000E-03 0.  1.
         11    1    1    2    0    0 -0.93471348679E+01  0.38079888903E+01 -0.27469967740E+01  0.10460196039E+02  0.51100000000E-03 0. -1.
<mgrwt>
<rscale>  0 0.20239889E+02</rscale>
<asrwt>0</asrwt>
<pdfrwt beam="2">  1        4 0.21915360E-02 0.20239889E+02</pdfrwt>
<pdfrwt beam="1">  1       -4 0.11060657E-02 0.20239889E+02</pdfrwt>
<totfact> 0.12618023E+06</totfact>
</mgrwt>
</event>
<event>
 5    1  0.1162275E-006  0.2000386E+02  0.7818608E-02  0.1745251E+00
         -4   -1    0    0    0  501 -0.00000000000E+00  0.00000000000E+00  0.35240523703E+02  0.35269121209E+02  0.14200000000E+01 0. -1.
          4   -1    0    0  501    0  0.00000000000E+00 -0.00000000000E+00 -0.26294520605E+01  0.29883805210E+01  0.14200000000E+01 0.  1.
       1023    2    1    2    0    0  0.00000000000E+00  0.00000000000E+00  0.32611071642E+02  0.38257501730E+02  0.20003860751E+02 0.  0.
        -11    1    3    3    0    0 -0.46048383221E+00  0.99894090851E+01  0.16679682533E+02  0.19447677211E+02  0.51100000000E-03 0. -1.
         11    1    3    3    0    0  0.46048383221E+00 -0.99894090851E+01  0.15931389109E+02  0.18809824519E+02  0.51100000000E-03 0.  1.
<mgrwt>
<rscale>  0 0.20003861E+02</rscale>
<asrwt>0</asrwt>
<pdfrwt beam="2">  1        4 0.43434077E-03 0.20003861E+02</pdfrwt>
<pdfrwt beam="1">  1       -4 0.54514288E-02 0.20003861E+02</pdfrwt>
<totfact> 0.12039790E+06</totfact>
</mgrwt>
</event>
<event>
 5    1  0.1154861E-006  0.2000017E+02  0.7818608E-02  0.1745325E+00
          4   -1    0    0  501    0  0.00000000000E+00  0.00000000000E+00  0.10542824156E+01  0.17685902329E+01  0.14200000000E+01 0.  1.
         -4   -1    0    0    0  501 -0.00000000000E+00 -0.00000000000E+00 -0.70127736511E+02  0.70142111660E+02  0.14200000000E+01 0. -1.
       1023    2    1    2    0    0  0.00000000000E+00  0.00000000000E+00 -0.69073454095E+02  0.71910701893E+02  0.20000174651E+02 0.  0.
        -11    1    3    3    0    0  0.87227422226E+00 -0.99619159190E+01 -0.34656795571E+02  0.36070682148E+02  0.51100000000E-03 0. -1.
         11    1    3    3    0    0 -0.87227422226E+00  0.99619159190E+01 -0.34416658524E+02  0.35840019745E+02  0.51100000000E-03 0.  1.
<mgrwt>
<rscale>  0 0.20000175E+02</rscale>
<asrwt>0</asrwt>
<pdfrwt beam="1">  1        4 0.21824989E-03 0.20000175E+02</pdfrwt>
<pdfrwt beam="2">  1       -4 0.10844932E-01 0.20000175E+02</pdfrwt>
<totfact> 0.10683673E+06</totfact>
</mgrwt>
</event>
<event>
 5    1  0.1154861E-006  0.2000037E+02  0.7818608E-02  0.1745321E+00
          4   -1    0    0  501    0  0.00000000000E+00  0.00000000000E+00  0.58613705924E+01  0.60309257350E+01  0.14200000000E+01 0. -1.
         -4   -1    0    0    0  501 -0.00000000000E+00 -0.00000000000E+00 -0.16617969789E+02  0.16678528709E+02  0.14200000000E+01 0.  1.
       1023    2    1    2    0    0  0.00000000000E+00  0.00000000000E+00 -0.10756599196E+02  0.22709454444E+02  0.20000372368E+02 0.  0.
        -11    1    3    3    0    0  0.51418402230E+01  0.85770094646E+01 -0.53902743006E+01  0.11360399180E+02  0.51100000000E-03 0.  1.
         11    1    3    3    0    0 -0.51418402230E+01 -0.85770094646E+01 -0.53663248957E+01  0.11349055264E+02  0.51100000000E-03 0. -1.
<mgrwt>
<rscale>  0 0.20000372E+02</rscale>
<asrwt>0</asrwt>
<pdfrwt beam="1">  1        4 0.91945041E-03 0.20000372E+02</pdfrwt>
<pdfrwt beam="2">  1       -4 0.25743118E-02 0.20000372E+02</pdfrwt>
<totfact> 0.12854753E+06</totfact>
</mgrwt>
</event>
<event>
 5    1  0.1154861E-006  0.2000216E+02  0.7818608E-02  0.1745285E+00
         -4   -1    0    0    0  501 -0.00000000000E+00  0.00000000000E+00  0.49154897065E+02  0.49175403460E+02  0.14200000000E+01 0. -1.
          4   -1    0    0  501    0  0.00000000000E+00 -0.00000000000E+00 -0.17635237144E+01  0.22641589810E+01  0.14200000000E+01 0.  1.
       1023    2    1    2    0    0  0.00000000000E+00  0.00000000000E+00  0.47391373350E+02  0.51439562441E+02  0.20002157786E+02 0.  0.
        -11    1    3    3    0    0 -0.39926144801E+00 -0.99921505967E+01  0.24051060986E+02  0.26047188295E+02  0.51100000000E-03 0. -1.
         11    1    3    3    0    0  0.39926144801E+00  0.99921505967E+01  0.23340312364E+02  0.25392374146E+02  0.51100000000E-03 0.  1.
<mgrwt>
<rscale>  0 0.20002158E+02</rscale>
<asrwt>0</asrwt>
<pdfrwt beam="2">  1        4 0.31139922E-03 0.20002158E+02</pdfrwt>
<pdfrwt beam="1">  1       -4 0.76023783E-02 0.20002158E+02</pdfrwt>
<totfact> 0.11457604E+06</totfact>
</mgrwt>
</event>
<event>
 5    1  0.1154861E-006  0.2000016E+02  0.7818608E-02  0.1745325E+00
         -4   -1    0    0    0  501 -0.00000000000E+00  0.00000000000E+00  0.54181401440E+00  0.15198560544E+01  0.14200000000E+01 0. -1.
          4   -1    0    0  501    0  0.00000000000E+00 -0.00000000000E+00 -0.96024501930E+02  0.96035000760E+02  0.14200000000E+01 0.  1.
       1023    2    1    2    0    0  0.00000000000E+00  0.00000000000E+00 -0.95482687916E+02  0.97554856814E+02  0.20000159910E+02 0.  0.
        -11    1    3    3    0    0 -0.60220417628E+00 -0.99819287907E+01 -0.47708049259E+02  0.48744840923E+02  0.51100000000E-03 0.  1.
         11    1    3    3    0    0  0.60220417628E+00  0.99819287907E+01 -0.47774638656E+02  0.48810015891E+02  0.51100000000E-03 0. -1.
<mgrwt>
<rscale>  0 0.20000160E+02</rscale>
<asrwt>0</asrwt>
<pdfrwt beam="2">  1        4 0.14849035E-01 0.20000160E+02</pdfrwt>
<pdfrwt beam="1">  1       -4 0.15939768E-03 0.20000160E+02</pdfrwt>
<totfact> 0.98712797E+05</totfact>
</mgrwt>
</event>
<event>
 5    1  0.1178404E-006  0.2000073E+02  0.7818608E-02  0.1745314E+00
          4   -1    0    0  501    0  0.00000000000E+00  0.00000000000E+00  0.14872207389E+02  0.14939844464E+02  0.14200000000E+01 0.  1.
         -4   -1    0    0    0  501 -0.00000000000E+00 -0.00000000000E+00 -0.65654755649E+01  0.67172813990E+01  0.14200000000E+01 0. -1.
       1023    2    1    2    0    0  0.00000000000E+00  0.00000000000E+00  0.83067318240E+01  0.21657125863E+02  0.20000732663E+02 0.  0.
        -11    1    3    3    0    0  0.99957459643E+01  0.29718015657E+00  0.40842598525E+01  0.10802056852E+02  0.51100000000E-03 0. -1.
         11    1    3    3    0    0 -0.99957459643E+01 -0.29718015657E+00  0.42224719715E+01  0.10855069011E+02  0.51100000000E-03 0.  1.
<mgrwt>
<rscale>  0 0.20000733E+02</rscale>
<asrwt>0</asrwt>
<pdfrwt beam="1">  1        4 0.23049121E-02 0.20000733E+02</pdfrwt>
<pdfrwt beam="2">  1       -4 0.10269534E-02 0.20000733E+02</pdfrwt>
<totfact> 0.12915217E+06</totfact>
</mgrwt>
</event>
<event>
 5    1  0.1154861E-006  0.2000010E+02  0.7818608E-02  0.1745326E+00
         -4   -1    0    0    0  501 -0.00000000000E+00  0.00000000000E+00  0.38002772352E+02  0.38029292742E+02  0.14200000000E+01 0.  1.
          4   -1    0    0  501    0  0.00000000000E+00 -0.00000000000E+00 -0.24103140123E+01  0.27975013205E+01  0.14200000000E+01 0. -1.
       1023    2    1    2    0    0  0.00000000000E+00  0.00000000000E+00  0.35592458340E+02  0.40826794062E+02  0.20000100568E+02 0.  0.
        -11    1    3    3    0    0  0.52072530765E+01  0.85372434351E+01  0.17860631438E+02  0.20469542391E+02  0.51100000000E-03 0. -1.
         11    1    3    3    0    0 -0.52072530765E+01 -0.85372434351E+01  0.17731826901E+02  0.20357251671E+02  0.51100000000E-03 0.  1.
<mgrwt>
<rscale>  0 0.20000101E+02</rscale>
<asrwt>0</asrwt>
<pdfrwt beam="2">  1        4 0.40264123E-03 0.20000101E+02</pdfrwt>
<pdfrwt beam="1">  1       -4 0.58784038E-02 0.20000101E+02</pdfrwt>
<totfact> 0.11924179E+06</totfact>
</mgrwt>
</event>
<event>
 5    1  0.1154861E-006  0.2000237E+02  0.7818608E-02  0.1745281E+00
          4   -1    0    0  501    0  0.00000000000E+00  0.00000000000E+00  0.13440687644E+01  0.19552291025E+01  0.14200000000E+01 0. -1.
         -4   -1    0    0    0  501 -0.00000000000E+00 -0.00000000000E+00 -0.60012197528E+02  0.60028995095E+02  0.14200000000E+01 0.  1.
       1023    2    1    2    0    0  0.00000000000E+00  0.00000000000E+00 -0.58668128764E+02  0.61984224198E+02  0.20002367779E+02 0.  0.
        -11    1    3    3    0    0 -0.25121687907E-01  0.10000667258E+02 -0.29028828653E+02  0.30703206184E+02  0.51100000000E-03 0.  1.
         11    1    3    3    0    0  0.25121687907E-01 -0.10000667258E+02 -0.29639300110E+02  0.31281018014E+02  0.51100000000E-03 0. -1.
<mgrwt>
<rscale>  0 0.20002368E+02</rscale>
<asrwt>0</asrwt>
<pdfrwt beam="1">  1        4 0.25508431E-03 0.20002368E+02</pdfrwt>
<pdfrwt beam="2">  1       -4 0.92809485E-02 0.20002368E+02</pdfrwt>
<totfact> 0.11040698E+06</totfact>
</mgrwt>
</event>
<event>
 5    1  0.1154861E-006  0.2000489E+02  0.7818608E-02  0.1745231E+00
          4   -1    0    0  501    0  0.00000000000E+00  0.00000000000E+00  0.73569610409E+00  0.15992650680E+01  0.14200000000E+01 0.  1.
         -4   -1    0    0    0  501 -0.00000000000E+00 -0.00000000000E+00 -0.84824687918E+02  0.84836572776E+02  0.14200000000E+01 0. -1.
       1023    2    1    2    0    0  0.00000000000E+00  0.00000000000E+00 -0.84088991814E+02  0.86435837844E+02  0.20004887391E+02 0.  0.
        -11    1    3    3    0    0  0.52603646180E+01  0.85055831558E+01 -0.41265577522E+02  0.42460149190E+02  0.51100000000E-03 0. -1.
         11    1    3    3    0    0 -0.52603646180E+01 -0.85055831558E+01 -0.42823414291E+02  0.43975688654E+02  0.51100000000E-03 0.  1.
<mgrwt>
<rscale>  0 0.20004887E+02</rscale>
<asrwt>0</asrwt>
<pdfrwt beam="1">  1        4 0.18052668E-03 0.20004887E+02</pdfrwt>
<pdfrwt beam="2">  1       -4 0.13117290E-01 0.20004887E+02</pdfrwt>
<totfact> 0.10200648E+06</totfact>
</mgrwt>
</event>
<event>
 5    1  0.1154861E-006  0.2000015E+02  0.7818608E-02  0.1745325E+00
         -4   -1    0    0    0  501 -0.00000000000E+00  0.00000000000E+00  0.64723697657E+02  0.64739272767E+02  0.14200000000E+01 0.  1.
          4   -1    0    0  501    0  0.00000000000E+00 -0.00000000000E+00 -0.11996129428E+01  0.18588897796E+01  0.14200000000E+01 0. -1.
       1023    2    1    2    0    0  0.00000000000E+00  0.00000000000E+00  0.63524084714E+02  0.66598162546E+02  0.20000147894E+02 0.  0.
        -11    1    3    3    0    0  0.37863591179E+00 -0.99928692448E+01  0.31675350804E+02  0.33216391281E+02  0.51100000000E-03 0.  1.
         11    1    3    3    0    0 -0.37863591179E+00  0.99928692448E+01  0.31848733910E+02  0.33381771265E+02  0.51100000000E-03 0. -1.
<mgrwt>
<rscale>  0 0.20000148E+02</rscale>
<asrwt>0</asrwt>
<pdfrwt beam="2">  1        4 0.23646748E-03 0.20000148E+02</pdfrwt>
<pdfrwt beam="1">  1       -4 0.10009406E-01 0.20000148E+02</pdfrwt>
<totfact> 0.10872408E+06</totfact>
</mgrwt>
</event>
<event>
 4    1  0.1154861E-006  0.2001932E+02  0.7818608E-02  0.1744944E+00
          4   -1    0    0  501    0  0.00000000000E+00  0.00000000000E+00  0.35088714624E+01  0.37853109436E+01  0.14200000000E+01 0. -1.
         -4   -1    0    0    0  501 -0.00000000000E+00 -0.00000000000E+00 -0.27176436786E+02  0.27213509813E+02  0.14200000000E+01 0. -1.
        -11    1    1    2    0    0  0.93492558922E+01  0.35623119637E+01 -0.11357380998E+02  0.15135678236E+02  0.51100000000E-03 0.  1.
         11    1    1    2    0    0 -0.93492558922E+01 -0.35623119637E+01 -0.12310184325E+02  0.15863142521E+02  0.51100000000E-03 0. -1.
<mgrwt>
<rscale>  0 0.20019322E+02</rscale>
<asrwt>0</asrwt>
<pdfrwt beam="1">  1        4 0.56394274E-03 0.20019322E+02</pdfrwt>
<pdfrwt beam="2">  1       -4 0.42051065E-02 0.20019322E+02</pdfrwt>
<totfact> 0.12379590E+06</totfact>
</mgrwt>
</event>
<event>
 5    1  0.1154861E-006  0.2000479E+02  0.7818608E-02  0.1745233E+00
          4   -1    0    0  501    0  0.00000000000E+00  0.00000000000E+00  0.63733278034E+02  0.63749095123E+02  0.14200000000E+01 0. -1.
         -4   -1    0    0    0  501 -0.00000000000E+00 -0.00000000000E+00 -0.12292944496E+01  0.18781812596E+01  0.14200000000E+01 0.  1.
       1023    2    1    2    0    0  0.00000000000E+00  0.00000000000E+00  0.62503983584E+02  0.65627276382E+02  0.20004785463E+02 0.  0.
        -11    1    3    3    0    0 -0.59037716525E+01  0.80722059740E+01  0.30657572198E+02  0.32247507847E+02  0.51100000000E-03 0. -1.
         11    1    3    3    0    0  0.59037716525E+01 -0.80722059740E+01  0.31846411386E+02  0.33379768535E+02  0.51100000000E-03 0.  1.
<mgrwt>
<rscale>  0 0.20004785E+02</rscale>
<asrwt>0</asrwt>
<pdfrwt beam="1">  1        4 0.98562516E-02 0.20004785E+02</pdfrwt>
<pdfrwt beam="2">  1       -4 0.24025327E-03 0.20004785E+02</pdfrwt>
<totfact> 0.10902711E+06</totfact>
</mgrwt>
</event>
<event>
 5    1  0.1154861E-006  0.2000114E+02  0.7818608E-02  0.1745305E+00
         -4   -1    0    0    0  501 -0.00000000000E+00  0.00000000000E+00  0.46520991828E+00  0.14942624495E+01  0.14200000000E+01 0.  1.
          4   -1    0    0  501    0  0.00000000000E+00 -0.00000000000E+00 -0.10104325759E+03  0.10105323500E+03  0.14200000000E+01 0. -1.
       1023    2    1    2    0    0  0.00000000000E+00  0.00000000000E+00 -0.10057804767E+03  0.10254749745E+03  0.20001138971E+02 0.  0.
        -11    1    3    3    0    0 -0.54032545372E+01 -0.84148163051E+01 -0.49857107670E+02  0.50850127616E+02  0.51100000000E-03 0. -1.
         11    1    3    3    0    0  0.54032545372E+01  0.84148163051E+01 -0.50720939997E+02  0.51697369831E+02  0.51100000000E-03 0.  1.
<mgrwt>
<rscale>  0 0.20001139E+02</rscale>
<asrwt>0</asrwt>
<pdfrwt beam="2">  1        4 0.15625034E-01 0.20001139E+02</pdfrwt>
<pdfrwt beam="1">  1       -4 0.15149622E-03 0.20001139E+02</pdfrwt>
<totfact> 0.97282023E+05</totfact>
</mgrwt>
</event>
<event>
 5    1  0.1154861E-006  0.2000026E+02  0.7818608E-02  0.1745323E+00
         -4   -1    0    0    0  501 -0.00000000000E+00  0.00000000000E+00  0.62859523025E+01  0.64443460762E+01  0.14200000000E+01 0. -1.
          4   -1    0    0  501    0  0.00000000000E+00 -0.00000000000E+00 -0.15519744102E+02  0.15584571120E+02  0.14200000000E+01 0.  1.
       1023    2    1    2    0    0  0.00000000000E+00  0.00000000000E+00 -0.92337917998E+01  0.22028917196E+02  0.20000257044E+02 0.  0.
        -11    1    3    3    0    0 -0.86287860096E+01 -0.50541478550E+01 -0.45650974325E+01  0.10992746398E+02  0.51100000000E-03 0.  1.
         11    1    3    3    0    0  0.86287860096E+01  0.50541478550E+01 -0.46686943673E+01  0.11036170799E+02  0.51100000000E-03 0. -1.
<mgrwt>
<rscale>  0 0.20000257E+02</rscale>
<asrwt>0</asrwt>
<pdfrwt beam="2">  1        4 0.24048238E-02 0.20000257E+02</pdfrwt>
<pdfrwt beam="1">  1       -4 0.98424042E-03 0.20000257E+02</pdfrwt>
<totfact> 0.12894207E+06</totfact>
</mgrwt>
</event>
<event>
 5    1  0.1199303E-006  0.2000154E+02  0.7818608E-02  0.1745297E+00
         -4   -1    0    0    0  501 -0.00000000000E+00  0.00000000000E+00  0.17993893338E+02  0.18049836494E+02  0.14200000000E+01 0. -1.
          4   -1    0    0  501    0  0.00000000000E+00 -0.00000000000E+00 -0.54018215562E+01  0.55853447633E+01  0.14200000000E+01 0.  1.
       1023    2    1    2    0    0  0.00000000000E+00  0.00000000000E+00  0.12592071782E+02  0.23635181257E+02  0.20001537974E+02 0.  0.
        -11    1    3    3    0    0  0.24740838059E+01 -0.96893864687E+01  0.61774017717E+01  0.11754386149E+02  0.51100000000E-03 0. -1.
         11    1    3    3    0    0 -0.24740838059E+01  0.96893864687E+01  0.64146700101E+01  0.11880795109E+02  0.51100000000E-03 0.  1.
<mgrwt>
<rscale>  0 0.20001538E+02</rscale>
<asrwt>0</asrwt>
<pdfrwt beam="2">  1        4 0.84946996E-03 0.20001538E+02</pdfrwt>
<pdfrwt beam="1">  1       -4 0.27867118E-02 0.20001538E+02</pdfrwt>
<totfact> 0.12800387E+06</totfact>
</mgrwt>
</event>
<event>
 4    1  0.1154861E-006  0.2004052E+02  0.7818608E-02  0.1744523E+00
         -4   -1    0    0    0  501 -0.00000000000E+00  0.00000000000E+00  0.82193674075E+02  0.82205939311E+02  0.14200000000E+01 0.  1.
          4   -1    0    0  501    0  0.00000000000E+00 -0.00000000000E+00 -0.79229414164E+00  0.16260781060E+01  0.14200000000E+01 0. -1.
        -11    1    1    2    0    0 -0.43613043691E+01  0.90210281078E+01  0.40384923805E+02  0.41609397916E+02  0.51100000000E-03 0. -1.
         11    1    1    2    0    0  0.43613043691E+01 -0.90210281078E+01  0.41016456128E+02  0.42222619501E+02  0.51100000000E-03 0.  1.
<mgrwt>
<rscale>  0 0.20040521E+02</rscale>
<asrwt>0</asrwt>
<pdfrwt beam="2">  1        4 0.18697213E-03 0.20040521E+02</pdfrwt>
<pdfrwt beam="1">  1       -4 0.12710260E-01 0.20040521E+02</pdfrwt>
<totfact> 0.10246075E+06</totfact>
</mgrwt>
</event>
<event>
 5    1  0.1154861E-006  0.2000038E+02  0.7818608E-02  0.1745321E+00
          4   -1    0    0  501    0  0.00000000000E+00  0.00000000000E+00  0.94367549595E+02  0.94378232747E+02  0.14200000000E+01 0.  1.
         -4   -1    0    0    0  501 -0.00000000000E+00 -0.00000000000E+00 -0.56838292015E+00  0.15295290595E+01  0.14200000000E+01 0. -1.
       1023    2    1    2    0    0  0.00000000000E+00  0.00000000000E+00  0.93799166675E+02  0.95907761807E+02  0.20000377645E+02 0.  0.
        -11    1    3    3    0    0 -0.31929123692E+01 -0.94767542803E+01  0.46829247406E+02  0.47885091354E+02  0.51100000000E-03 0.  1.
         11    1    3    3    0    0  0.31929123692E+01  0.94767542803E+01  0.46969919268E+02  0.48022670453E+02  0.51100000000E-03 0. -1.
<mgrwt>
<rscale>  0 0.20000378E+02</rscale>
<asrwt>0</asrwt>
<pdfrwt beam="1">  1        4 0.14592847E-01 0.20000378E+02</pdfrwt>
<pdfrwt beam="2">  1       -4 0.16219956E-03 0.20000378E+02</pdfrwt>
<totfact> 0.99189847E+05</totfact>
</mgrwt>
</event>
<event>
 5    1  0.1154861E-006  0.2000018E+02  0.7818608E-02  0.1745325E+00
         -4   -1    0    0    0  501 -0.00000000000E+00  0.00000000000E+00  0.68772662100E+01  0.70223351190E+01  0.14200000000E+01 0. -1.
          4   -1    0    0  501    0  0.00000000000E+00 -0.00000000000E+00 -0.14208325048E+02  0.14279107138E+02  0.14200000000E+01 0.  1.
       1023    2    1    2    0    0  0.00000000000E+00  0.00000000000E+00 -0.73310588380E+01  0.21301442257E+02  0.20000175463E+02 0.  0.
        -11    1    3    3    0    0  0.17929177188E+01  0.98380142916E+01 -0.36932053048E+01  0.10660246002E+02  0.51100000000E-03 0.  1.
         11    1    3    3    0    0 -0.17929177188E+01 -0.98380142916E+01 -0.36378535332E+01  0.10641196255E+02  0.51100000000E-03 0. -1.
<mgrwt>
<rscale>  0 0.20000175E+02</rscale>
<asrwt>0</asrwt>
<pdfrwt beam="2">  1        4 0.22025001E-02 0.20000175E+02</pdfrwt>
<pdfrwt beam="1">  1       -4 0.10746449E-02 0.20000175E+02</pdfrwt>
<totfact> 0.12936772E+06</totfact>
</mgrwt>
</event>
<event>
 5    1  0.1154861E-006  0.2000047E+02  0.7818608E-02  0.1745319E+00
         -4   -1    0    0    0  501 -0.00000000000E+00  0.00000000000E+00  0.34687645127E+00  0.14617534924E+01  0.14200000000E+01 0. -1.
          4   -1    0    0  501    0  0.00000000000E+00 -0.00000000000E+00 -0.10946386881E+03  0.10947307876E+03  0.14200000000E+01 0.  1.
       1023    2    1    2    0    0  0.00000000000E+00  0.00000000000E+00 -0.10911699235E+03  0.11093483226E+03  0.20000474672E+02 0.  0.
        -11    1    3    3    0    0 -0.49996077249E+01 -0.86606947907E+01 -0.54736926056E+02  0.55642922155E+02  0.51100000000E-03 0.  1.
         11    1    3    3    0    0  0.49996077249E+01  0.86606947907E+01 -0.54380066298E+02  0.55291910100E+02  0.51100000000E-03 0. -1.
<mgrwt>
<rscale>  0 0.20000475E+02</rscale>
<asrwt>0</asrwt>
<pdfrwt beam="2">  1        4 0.16927053E-01 0.20000475E+02</pdfrwt>
<pdfrwt beam="1">  1       -4 0.13983393E-03 0.20000475E+02</pdfrwt>
<totfact> 0.94999212E+05</totfact>
</mgrwt>
</event>
<event>
 5    1  0.1154861E-006  0.2000179E+02  0.7818608E-02  0.1745292E+00
          4   -1    0    0  501    0  0.00000000000E+00  0.00000000000E+00  0.55395918839E+02  0.55414115747E+02  0.14200000000E+01 0.  1.
         -4   -1    0    0    0  501 -0.00000000000E+00 -0.00000000000E+00 -0.15048734147E+01  0.20690683880E+01  0.14200000000E+01 0. -1.
       1023    2    1    2    0    0  0.00000000000E+00  0.00000000000E+00  0.53891045424E+02  0.57483184135E+02  0.20001791954E+02 0.  0.
        -11    1    3    3    0    0  0.29757571997E+01  0.95476695580E+01  0.26746512931E+02  0.28555018458E+02  0.51100000000E-03 0. -1.
         11    1    3    3    0    0 -0.29757571997E+01 -0.95476695580E+01  0.27144532493E+02  0.28928165677E+02  0.51100000000E-03 0.  1.
<mgrwt>
<rscale>  0 0.20001792E+02</rscale>
<asrwt>0</asrwt>
<pdfrwt beam="1">  1        4 0.85672476E-02 0.20001792E+02</pdfrwt>
<pdfrwt beam="2">  1       -4 0.27631839E-03 0.20001792E+02</pdfrwt>
<totfact> 0.11214429E+06</totfact>
</mgrwt>
</event>
<event>
 5    1  0.1163999E-006  0.2000217E+02  0.7818608E-02  0.1745285E+00
         -4   -1    0    0    0  501 -0.00000000000E+00  0.00000000000E+00  0.28700382544E+02  0.28735489524E+02  0.14200000000E+01 0.  1.
          4   -1    0    0  501    0  0.00000000000E+00 -0.00000000000E+00 -0.33014889018E+01  0.35939155484E+01  0.14200000000E+01 0. -1.
       1023    2    1    2    0    0  0.00000000000E+00  0.00000000000E+00  0.25398893642E+02  0.32329405072E+02  0.20002165735E+02 0.  0.
        -11    1    3    3    0    0  0.52632705159E+01 -0.85039947474E+01  0.12766383108E+02  0.16217289574E+02  0.51100000000E-03 0. -1.
         11    1    3    3    0    0 -0.52632705159E+01  0.85039947474E+01  0.12632510534E+02  0.16112115499E+02  0.51100000000E-03 0.  1.
<mgrwt>
<rscale>  0 0.20002166E+02</rscale>
<asrwt>0</asrwt>
<pdfrwt beam="2">  1        4 0.53311624E-03 0.20002166E+02</pdfrwt>
<pdfrwt beam="1">  1       -4 0.44406386E-02 0.20002166E+02</pdfrwt>
<totfact> 0.12332963E+06</totfact>
</mgrwt>
</event>
<event>
 4    1  0.1154861E-006  0.2001564E+02  0.7818608E-02  0.1745017E+00
          4   -1    0    0  501    0  0.00000000000E+00  0.00000000000E+00  0.44374021231E+01  0.46590704654E+01  0.14200000000E+01 0.  1.
         -4   -1    0    0    0  501 -0.00000000000E+00 -0.00000000000E+00 -0.21775590096E+02  0.21821840528E+02  0.14200000000E+01 0. -1.
        -11    1    1    2    0    0 -0.94451995546E+01  0.32909189539E+01 -0.91168286411E+01  0.13533606575E+02  0.51100000000E-03 0.  1.
         11    1    1    2    0    0  0.94451995546E+01 -0.32909189539E+01 -0.82213593322E+01  0.12947304419E+02  0.51100000000E-03 0. -1.
<mgrwt>
<rscale>  0 0.20015641E+02</rscale>
<asrwt>0</asrwt>
<pdfrwt beam="1">  1        4 0.70328640E-03 0.20015641E+02</pdfrwt>
<pdfrwt beam="2">  1       -4 0.33706999E-02 0.20015641E+02</pdfrwt>
<totfact> 0.12623682E+06</totfact>
</mgrwt>
</event>
<event>
 5    1  0.1154861E-006  0.2000712E+02  0.7818608E-02  0.1745187E+00
         -4   -1    0    0    0  501 -0.00000000000E+00  0.00000000000E+00  0.28235519114E+02  0.28271203364E+02  0.14200000000E+01 0. -1.
          4   -1    0    0  501    0  0.00000000000E+00 -0.00000000000E+00 -0.33623698822E+01  0.36499220847E+01  0.14200000000E+01 0.  1.
       1023    2    1    2    0    0  0.00000000000E+00  0.00000000000E+00  0.24873149232E+02  0.31921125449E+02  0.20007116164E+02 0.  0.
        -11    1    3    3    0    0  0.80641572891E+01 -0.59146613072E+01  0.12054579617E+02  0.15662909729E+02  0.51100000000E-03 0.  1.
         11    1    3    3    0    0 -0.80641572891E+01  0.59146613072E+01  0.12818569615E+02  0.16258215720E+02  0.51100000000E-03 0. -1.
<mgrwt>
<rscale>  0 0.20007116E+02</rscale>
<asrwt>0</asrwt>
<pdfrwt beam="2">  1        4 0.54215199E-03 0.20007116E+02</pdfrwt>
<pdfrwt beam="1">  1       -4 0.43687906E-02 0.20007116E+02</pdfrwt>
<totfact> 0.12347572E+06</totfact>
</mgrwt>
</event>
<event>
 5    1  0.1231696E-006  0.2000123E+02  0.7818608E-02  0.1745304E+00
          4   -1    0    0  501    0  0.00000000000E+00  0.00000000000E+00  0.75006766078E+01  0.76339078835E+01  0.14200000000E+01 0. -1.
         -4   -1    0    0    0  501 -0.00000000000E+00 -0.00000000000E+00 -0.13044294154E+02  0.13121357017E+02  0.14200000000E+01 0.  1.
       1023    2    1    2    0    0  0.00000000000E+00  0.00000000000E+00 -0.55436175459E+01  0.20755264901E+02  0.20001233102E+02 0.  0.
        -11    1    3    3    0    0  0.99672288020E+01 -0.81650526109E+00 -0.27723826801E+01  0.10377785738E+02  0.51100000000E-03 0.  1.
         11    1    3    3    0    0 -0.99672288020E+01  0.81650526109E+00 -0.27712348658E+01  0.10377479163E+02  0.51100000000E-03 0. -1.
<mgrwt>
<rscale>  0 0.20001233E+02</rscale>
<asrwt>0</asrwt>
<pdfrwt beam="1">  1        4 0.11701267E-02 0.20001233E+02</pdfrwt>
<pdfrwt beam="2">  1       -4 0.20229910E-02 0.20001233E+02</pdfrwt>
<totfact> 0.12967597E+06</totfact>
</mgrwt>
</event>
<event>
 5    1  0.1154861E-006  0.2001211E+02  0.7818608E-02  0.1745087E+00
         -4   -1    0    0    0  501 -0.00000000000E+00  0.00000000000E+00  0.42589352143E+02  0.42613018151E+02  0.14200000000E+01 0. -1.
          4   -1    0    0  501    0  0.00000000000E+00 -0.00000000000E+00 -0.21097884289E+01  0.25431490744E+01  0.14200000000E+01 0.  1.
       1023    2    1    2    0    0  0.00000000000E+00  0.00000000000E+00  0.40479563714E+02  0.45156167225E+02  0.20012105337E+02 0.  0.
        -11    1    3    3    0    0  0.74032089201E+01  0.67310353881E+01  0.20425168001E+02  0.22744270220E+02  0.51100000000E-03 0.  1.
         11    1    3    3    0    0 -0.74032089201E+01 -0.67310353881E+01  0.20054395712E+02  0.22411897005E+02  0.51100000000E-03 0. -1.
<mgrwt>
<rscale>  0 0.20012105E+02</rscale>
<asrwt>0</asrwt>
<pdfrwt beam="2">  1        4 0.35973875E-03 0.20012105E+02</pdfrwt>
<pdfrwt beam="1">  1       -4 0.65873636E-02 0.20012105E+02</pdfrwt>
<totfact> 0.11714576E+06</totfact>
</mgrwt>
</event>
<event>
 5    1  0.1188101E-006  0.2000106E+02  0.7818608E-02  0.1745307E+00
          4   -1    0    0  501    0  0.00000000000E+00  0.00000000000E+00  0.11805838587E+02  0.11890930357E+02  0.14200000000E+01 0. -1.
         -4   -1    0    0    0  501 -0.00000000000E+00 -0.00000000000E+00 -0.82952258239E+01  0.84158880381E+01  0.14200000000E+01 0.  1.
       1023    2    1    2    0    0  0.00000000000E+00  0.00000000000E+00  0.35106127634E+01  0.20306818395E+02  0.20001061755E+02 0.  0.
        -11    1    3    3    0    0 -0.98627342106E+01  0.16523470761E+01  0.18392787023E+01  0.10167926208E+02  0.51100000000E-03 0.  1.
         11    1    3    3    0    0  0.98627342106E+01 -0.16523470761E+01  0.16713340611E+01  0.10138892187E+02  0.51100000000E-03 0. -1.
<mgrwt>
<rscale>  0 0.20001062E+02</rscale>
<asrwt>0</asrwt>
<pdfrwt beam="1">  1        4 0.18321101E-02 0.20001062E+02</pdfrwt>
<pdfrwt beam="2">  1       -4 0.12920158E-02 0.20001062E+02</pdfrwt>
<totfact> 0.12994375E+06</totfact>
</mgrwt>
</event>
<event>
 5    1  0.1154861E-006  0.2000319E+02  0.7818608E-02  0.1745265E+00
          4   -1    0    0  501    0  0.00000000000E+00  0.00000000000E+00  0.29715994414E+02  0.29749902924E+02  0.14200000000E+01 0.  1.
         -4   -1    0    0    0  501 -0.00000000000E+00 -0.00000000000E+00 -0.31789837479E+01  0.34817147599E+01  0.14200000000E+01 0. -1.
       1023    2    1    2    0    0  0.00000000000E+00  0.00000000000E+00  0.26537010666E+02  0.33231617684E+02  0.20003186717E+02 0.  0.
        -11    1    3    3    0    0 -0.74413309324E+00 -0.99734488010E+01  0.13115750968E+02  0.16493827293E+02  0.51100000000E-03 0.  1.
         11    1    3    3    0    0  0.74413309324E+00  0.99734488010E+01  0.13421259698E+02  0.16737790392E+02  0.51100000000E-03 0. -1.
<mgrwt>
<rscale>  0 0.20003187E+02</rscale>
<asrwt>0</asrwt>
<pdfrwt beam="1">  1        4 0.45975868E-02 0.20003187E+02</pdfrwt>
<pdfrwt beam="2">  1       -4 0.51496977E-03 0.20003187E+02</pdfrwt>
<totfact> 0.12286058E+06</totfact>
</mgrwt>
</event>
<event>
 5    1  0.1154861E-006  0.2000025E+02  0.7818608E-02  0.1745323E+00
          4   -1    0    0  501    0  0.00000000000E+00  0.00000000000E+00  0.11124375210E+03  0.11125281471E+03  0.14200000000E+01 0. -1.
         -4   -1    0    0    0  501 -0.00000000000E+00 -0.00000000000E+00 -0.32331225078E+00  0.14563415848E+01  0.14200000000E+01 0.  1.
       1023    2    1    2    0    0  0.00000000000E+00  0.00000000000E+00  0.11092043985E+03  0.11270915629E+03  0.20000248416E+02 0.  0.
        -11    1    3    3    0    0 -0.44850649367E+00  0.99900259384E+01  0.55310315199E+02  0.56207052440E+02  0.51100000000E-03 0.  1.
         11    1    3    3    0    0  0.44850649367E+00 -0.99900259384E+01  0.55610124647E+02  0.56502103853E+02  0.51100000000E-03 0. -1.
<mgrwt>
<rscale>  0 0.20000248E+02</rscale>
<asrwt>0</asrwt>
<pdfrwt beam="1">  1        4 0.17202282E-01 0.20000248E+02</pdfrwt>
<pdfrwt beam="2">  1       -4 0.13759353E-03 0.20000248E+02</pdfrwt>
<totfact> 0.94532067E+05</totfact>
</mgrwt>
</event>
<event>
 5    1  0.1154861E-006  0.2000351E+02  0.7818608E-02  0.1745258E+00
         -4   -1    0    0    0  501 -0.00000000000E+00  0.00000000000E+00  0.14915963650E+01  0.20594318916E+01  0.14200000000E+01 0. -1.
          4   -1    0    0  501    0  0.00000000000E+00 -0.00000000000E+00 -0.55763164362E+02  0.55781241468E+02  0.14200000000E+01 0.  1.
       1023    2    1    2    0    0  0.00000000000E+00  0.00000000000E+00 -0.54271567997E+02  0.57840673359E+02  0.20003509737E+02 0.  0.
        -11    1    3    3    0    0  0.48954692415E+00  0.99891239541E+01 -0.27463518120E+02  0.29227847703E+02  0.51100000000E-03 0.  1.
         11    1    3    3    0    0 -0.48954692415E+00 -0.99891239541E+01 -0.26808049877E+02  0.28612825656E+02  0.51100000000E-03 0. -1.
<mgrwt>
<rscale>  0 0.20003510E+02</rscale>
<asrwt>0</asrwt>
<pdfrwt beam="2">  1        4 0.86240172E-02 0.20003510E+02</pdfrwt>
<pdfrwt beam="1">  1       -4 0.27454661E-03 0.20003510E+02</pdfrwt>
<totfact> 0.11198502E+06</totfact>
</mgrwt>
</event>
<event>
 5    1  0.1154861E-006  0.2000205E+02  0.7818608E-02  0.1745287E+00
         -4   -1    0    0    0  501 -0.00000000000E+00  0.00000000000E+00  0.61952421980E+00  0.15492611978E+01  0.14200000000E+01 0. -1.
          4   -1    0    0  501    0  0.00000000000E+00 -0.00000000000E+00 -0.91298833438E+02  0.91309875627E+02  0.14200000000E+01 0.  1.
       1023    2    1    2    0    0  0.00000000000E+00  0.00000000000E+00 -0.90679309218E+02  0.92859136825E+02  0.20002054186E+02 0.  0.
        -11    1    3    3    0    0  0.40508675820E+01 -0.91437740934E+01 -0.45567553572E+02  0.46652117547E+02  0.51100000000E-03 0.  1.
         11    1    3    3    0    0 -0.40508675820E+01  0.91437740934E+01 -0.45111755646E+02  0.46207019278E+02  0.51100000000E-03 0. -1.
<mgrwt>
<rscale>  0 0.20002054E+02</rscale>
<asrwt>0</asrwt>
<pdfrwt beam="2">  1        4 0.14118336E-01 0.20002054E+02</pdfrwt>
<pdfrwt beam="1">  1       -4 0.16767912E-03 0.20002054E+02</pdfrwt>
<totfact> 0.10007421E+06</totfact>
</mgrwt>
</event>
<event>
 5    1  0.1154861E-006  0.2000071E+02  0.7818608E-02  0.1745314E+00
         -4   -1    0    0    0  501 -0.00000000000E+00  0.00000000000E+00  0.34362592724E+02  0.34391920254E+02  0.14200000000E+01 0.  1.
          4   -1    0    0  501    0  0.00000000000E+00 -0.00000000000E+00 -0.27046520908E+01  0.30547574260E+01  0.14200000000E+01 0. -1.
       1023    2    1    2    0    0  0.00000000000E+00  0.00000000000E+00  0.31657940634E+02  0.37446677680E+02  0.20000711590E+02 0.  0.
        -11    1    3    3    0    0 -0.49348685052E+00 -0.99881433165E+01  0.15783896464E+02  0.18685232780E+02  0.51100000000E-03 0. -1.
         11    1    3    3    0    0  0.49348685052E+00  0.99881433165E+01  0.15874044169E+02  0.18761444900E+02  0.51100000000E-03 0.  1.
<mgrwt>
<rscale>  0 0.20000712E+02</rscale>
<asrwt>0</asrwt>
<pdfrwt beam="2">  1        4 0.44528749E-03 0.20000712E+02</pdfrwt>
<pdfrwt beam="1">  1       -4 0.53157396E-02 0.20000712E+02</pdfrwt>
<totfact> 0.12082280E+06</totfact>
</mgrwt>
</event>
<event>
 5    1  0.1154861E-006  0.2000078E+02  0.7818608E-02  0.1745313E+00
         -4   -1    0    0    0  501 -0.00000000000E+00  0.00000000000E+00  0.75891176076E+02  0.75904459726E+02  0.14200000000E+01 0. -1.
          4   -1    0    0  501    0  0.00000000000E+00 -0.00000000000E+00 -0.91786889318E+00  0.16908232625E+01  0.14200000000E+01 0.  1.
       1023    2    1    2    0    0  0.00000000000E+00  0.00000000000E+00  0.74973307183E+02  0.77595282988E+02  0.20000778786E+02 0.  0.
        -11    1    3    3    0    0 -0.47279519612E+01  0.88121651283E+01  0.37494170182E+02  0.38804904096E+02  0.51100000000E-03 0. -1.
         11    1    3    3    0    0  0.47279519612E+01 -0.88121651283E+01  0.37479137002E+02  0.38790378893E+02  0.51100000000E-03 0.  1.
<mgrwt>
<rscale>  0 0.20000779E+02</rscale>
<asrwt>0</asrwt>
<pdfrwt beam="2">  1        4 0.20169040E-03 0.20000779E+02</pdfrwt>
<pdfrwt beam="1">  1       -4 0.11736048E-01 0.20000779E+02</pdfrwt>
<totfact> 0.10489655E+06</totfact>
</mgrwt>
</event>
<event>
 5    1  0.1154861E-006  0.2000414E+02  0.7818608E-02  0.1745246E+00
          4   -1    0    0  501    0  0.00000000000E+00  0.00000000000E+00  0.14716135785E+02  0.14784486885E+02  0.14200000000E+01 0.  1.
         -4   -1    0    0    0  501 -0.00000000000E+00 -0.00000000000E+00 -0.66387175685E+01  0.67888858404E+01  0.14200000000E+01 0. -1.
       1023    2    1    2    0    0  0.00000000000E+00  0.00000000000E+00  0.80774182165E+01  0.21573372725E+02  0.20004142713E+02 0.  0.
        -11    1    3    3    0    0 -0.51597946474E+01 -0.85674652058E+01  0.41771972085E+01  0.10838538538E+02  0.51100000000E-03 0.  1.
         11    1    3    3    0    0  0.51597946474E+01  0.85674652058E+01  0.39002210080E+01  0.10734834187E+02  0.51100000000E-03 0. -1.
<mgrwt>
<rscale>  0 0.20004143E+02</rscale>
<asrwt>0</asrwt>
<pdfrwt beam="1">  1        4 0.22808300E-02 0.20004143E+02</pdfrwt>
<pdfrwt beam="2">  1       -4 0.10381504E-02 0.20004143E+02</pdfrwt>
<totfact> 0.12915616E+06</totfact>
</mgrwt>
</event>
<event>
 5    1  0.1154861E-006  0.2000297E+02  0.7818608E-02  0.1745269E+00
          4   -1    0    0  501    0  0.00000000000E+00  0.00000000000E+00  0.27192426870E+01  0.30676832938E+01  0.14200000000E+01 0. -1.
         -4   -1    0    0    0  501 -0.00000000000E+00 -0.00000000000E+00 -0.34206855348E+02  0.34236316286E+02  0.14200000000E+01 0.  1.
       1023    2    1    2    0    0  0.00000000000E+00  0.00000000000E+00 -0.31487612661E+02  0.37303999580E+02  0.20002965618E+02 0.  0.
        -11    1    3    3    0    0 -0.64748769264E+01  0.76217678266E+01 -0.15966679163E+02  0.18840122605E+02  0.51100000000E-03 0. -1.
         11    1    3    3    0    0  0.64748769264E+01 -0.76217678266E+01 -0.15520933498E+02  0.18463876975E+02  0.51100000000E-03 0.  1.
<mgrwt>
<rscale>  0 0.20002966E+02</rscale>
<asrwt>0</asrwt>
<pdfrwt beam="1">  1        4 0.44741440E-03 0.20002966E+02</pdfrwt>
<pdfrwt beam="2">  1       -4 0.52916622E-02 0.20002966E+02</pdfrwt>
<totfact> 0.12086358E+06</totfact>
</mgrwt>
</event>
<event>
 5    1  0.1154861E-006  0.2000036E+02  0.7818608E-02  0.1745321E+00
         -4   -1    0    0    0  501 -0.00000000000E+00  0.00000000000E+00  0.45097101782E+01  0.47279896247E+01  0.14200000000E+01 0. -1.
          4   -1    0    0  501    0  0.00000000000E+00 -0.00000000000E+00 -0.21408833093E+02  0.21455874124E+02  0.14200000000E+01 0.  1.
       1023    2    1    2    0    0  0.00000000000E+00  0.00000000000E+00 -0.16899122915E+02  0.26183863748E+02  0.20000359134E+02 0.  0.
        -11    1    3    3    0    0  0.64937779701E+01  0.76048922698E+01 -0.84590339793E+01  0.13098045460E+02  0.51100000000E-03 0.  1.
         11    1    3    3    0    0 -0.64937779701E+01 -0.76048922698E+01 -0.84400889358E+01  0.13085818288E+02  0.51100000000E-03 0. -1.
<mgrwt>
<rscale>  0 0.20000359E+02</rscale>
<asrwt>0</asrwt>
<pdfrwt beam="2">  1        4 0.33140758E-02 0.20000359E+02</pdfrwt>
<pdfrwt beam="1">  1       -4 0.71421085E-03 0.20000359E+02</pdfrwt>
<totfact> 0.12659597E+06</totfact>
</mgrwt>
</event>
<event>
 5    1  0.1154861E-006  0.2000050E+02  0.7818608E-02  0.1745318E+00
         -4   -1    0    0    0  501 -0.00000000000E+00  0.00000000000E+00  0.53547433879E+02  0.53566258736E+02  0.14200000000E+01 0.  1.
          4   -1    0    0  501    0  0.00000000000E+00 -0.00000000000E+00 -0.15756725677E+01  0.21211185824E+01  0.14200000000E+01 0. -1.
       1023    2    1    2    0    0  0.00000000000E+00  0.00000000000E+00  0.51971761311E+02  0.55687377318E+02  0.20000500465E+02 0.  0.
        -11    1    3    3    0    0  0.83998345962E+01 -0.54265660225E+01  0.26021582198E+02  0.27877008096E+02  0.51100000000E-03 0. -1.
         11    1    3    3    0    0 -0.83998345962E+01  0.54265660225E+01  0.25950179113E+02  0.27810369222E+02  0.51100000000E-03 0.  1.
<mgrwt>
<rscale>  0 0.20000500E+02</rscale>
<asrwt>0</asrwt>
<pdfrwt beam="2">  1        4 0.28581663E-03 0.20000500E+02</pdfrwt>
<pdfrwt beam="1">  1       -4 0.82814718E-02 0.20000500E+02</pdfrwt>
<totfact> 0.11286863E+06</totfact>
</mgrwt>
</event>
<event>
 5    1  0.1154861E-006  0.2000020E+02  0.7818608E-02  0.1745324E+00
          4   -1    0    0  501    0  0.00000000000E+00  0.00000000000E+00  0.42960436954E+02  0.42983898651E+02  0.14200000000E+01 0.  1.
         -4   -1    0    0    0  501 -0.00000000000E+00 -0.00000000000E+00 -0.20847830926E+01  0.25224433677E+01  0.14200000000E+01 0. -1.
       1023    2    1    2    0    0  0.00000000000E+00  0.00000000000E+00  0.40875653861E+02  0.45506342019E+02  0.20000202133E+02 0.  0.
        -11    1    3    3    0    0  0.95844889239E+01 -0.28529968845E+01  0.20434671106E+02  0.22750336319E+02  0.51100000000E-03 0. -1.
         11    1    3    3    0    0 -0.95844889239E+01  0.28529968845E+01  0.20440982756E+02  0.22756005700E+02  0.51100000000E-03 0.  1.
<mgrwt>
<rscale>  0 0.20000202E+02</rscale>
<asrwt>0</asrwt>
<pdfrwt beam="1">  1        4 0.66447681E-02 0.20000202E+02</pdfrwt>
<pdfrwt beam="2">  1       -4 0.35620683E-03 0.20000202E+02</pdfrwt>
<totfact> 0.11713237E+06</totfact>
</mgrwt>
</event>
<event>
 5    1  0.1154861E-006  0.2000207E+02  0.7818608E-02  0.1745287E+00
         -4   -1    0    0    0  501 -0.00000000000E+00  0.00000000000E+00  0.24707655397E+01  0.28497512790E+01  0.14200000000E+01 0.  1.
          4   -1    0    0  501    0  0.00000000000E+00 -0.00000000000E+00 -0.37204619154E+02  0.37231708077E+02  0.14200000000E+01 0. -1.
       1023    2    1    2    0    0  0.00000000000E+00  0.00000000000E+00 -0.34733853614E+02  0.40081459356E+02  0.20002069825E+02 0.  0.
        -11    1    3    3    0    0 -0.53627438162E+01  0.84405205991E+01 -0.17088614229E+02  0.19799549130E+02  0.51100000000E-03 0.  1.
         11    1    3    3    0    0  0.53627438162E+01 -0.84405205991E+01 -0.17645239385E+02  0.20281910227E+02  0.51100000000E-03 0. -1.
<mgrwt>
<rscale>  0 0.20002070E+02</rscale>
<asrwt>0</asrwt>
<pdfrwt beam="2">  1        4 0.57550237E-02 0.20002070E+02</pdfrwt>
<pdfrwt beam="1">  1       -4 0.41135431E-03 0.20002070E+02</pdfrwt>
<totfact> 0.11956315E+06</totfact>
</mgrwt>
</event>
<event>
 5    1  0.1164735E-006  0.2000060E+02  0.7818608E-02  0.1745316E+00
          4   -1    0    0  501    0  0.00000000000E+00  0.00000000000E+00  0.39432377780E+01  0.41911244522E+01  0.14200000000E+01 0.  1.
         -4   -1    0    0    0  501 -0.00000000000E+00 -0.00000000000E+00 -0.24319297174E+02  0.24360718688E+02  0.14200000000E+01 0. -1.
       1023    2    1    2    0    0  0.00000000000E+00  0.00000000000E+00 -0.20376059396E+02  0.28551843141E+02  0.20000598747E+02 0.  0.
        -11    1    3    3    0    0  0.98869580513E+01  0.15009383811E+01 -0.10137927666E+02  0.14240166191E+02  0.51100000000E-03 0. -1.
         11    1    3    3    0    0 -0.98869580513E+01 -0.15009383811E+01 -0.10238131730E+02  0.14311676950E+02  0.51100000000E-03 0.  1.
<mgrwt>
<rscale>  0 0.20000599E+02</rscale>
<asrwt>0</asrwt>
<pdfrwt beam="1">  1        4 0.62890645E-03 0.20000599E+02</pdfrwt>
<pdfrwt beam="2">  1       -4 0.37636847E-02 0.20000599E+02</pdfrwt>
<totfact> 0.12531318E+06</totfact>
</mgrwt>
</event>
<event>
 5    1  0.1154861E-006  0.2000060E+02  0.7818608E-02  0.1745316E+00
          4   -1    0    0  501    0  0.00000000000E+00  0.00000000000E+00  0.11570013429E+03  0.11570884787E+03  0.14200000000E+01 0.  1.
         -4   -1    0    0    0  501 -0.00000000000E+00 -0.00000000000E+00 -0.26640050920E+00  0.14447730726E+01  0.14200000000E+01 0. -1.
       1023    2    1    2    0    0  0.00000000000E+00  0.00000000000E+00  0.11543373378E+03  0.11715362094E+03  0.20000600108E+02 0.  0.
        -11    1    3    3    0    0  0.48848681110E+01  0.87260527920E+01  0.57668877561E+02  0.58529525653E+02  0.51100000000E-03 0.  1.
         11    1    3    3    0    0 -0.48848681110E+01 -0.87260527920E+01  0.57764856219E+02  0.58624095286E+02  0.51100000000E-03 0. -1.
<mgrwt>
<rscale>  0 0.20000600E+02</rscale>
<asrwt>0</asrwt>
<pdfrwt beam="1">  1        4 0.17891331E-01 0.20000600E+02</pdfrwt>
<pdfrwt beam="2">  1       -4 0.13229904E-03 0.20000600E+02</pdfrwt>
<totfact> 0.93375342E+05</totfact>
</mgrwt>
</event>
<event>
 5    1  0.1195520E-006  0.2000115E+02  0.7818608E-02  0.1745305E+00
         -4   -1    0    0    0  501 -0.00000000000E+00  0.00000000000E+00  0.53310064096E+01  0.55168858370E+01  0.14200000000E+01 0. -1.
          4   -1    0    0  501    0  0.00000000000E+00 -0.00000000000E+00 -0.18224920023E+02  0.18280156177E+02  0.14200000000E+01 0.  1.
       1023    2    1    2    0    0  0.00000000000E+00  0.00000000000E+00 -0.12893913614E+02  0.23797042014E+02  0.20001154975E+02 0.  0.
        -11    1    3    3    0    0 -0.78188108272E+01 -0.62351976879E+01 -0.64379847980E+01  0.11893659718E+02  0.51100000000E-03 0. -1.
         11    1    3    3    0    0  0.78188108272E+01  0.62351976879E+01 -0.64559288157E+01  0.11903382296E+02  0.51100000000E-03 0.  1.
<mgrwt>
<rscale>  0 0.20001155E+02</rscale>
<asrwt>0</asrwt>
<pdfrwt beam="2">  1        4 0.28223812E-02 0.20001155E+02</pdfrwt>
<pdfrwt beam="1">  1       -4 0.83870220E-03 0.20001155E+02</pdfrwt>
<totfact> 0.12791720E+06</totfact>
</mgrwt>
</event>
<event>
 5    1  0.1154861E-006  0.2001070E+02  0.7818608E-02  0.1745115E+00
          4   -1    0    0  501    0  0.00000000000E+00  0.00000000000E+00  0.75482727313E+01  0.76806784353E+01  0.14200000000E+01 0.  1.
         -4   -1    0    0    0  501 -0.00000000000E+00 -0.00000000000E+00 -0.12975465805E+02  0.13052935029E+02  0.14200000000E+01 0. -1.
       1023    2    1    2    0    0  0.00000000000E+00  0.00000000000E+00 -0.54271930741E+01  0.20733613464E+02  0.20010704701E+02 0.  0.
        -11    1    3    3    0    0 -0.74952655556E+01  0.66240713827E+01 -0.24824963716E+01  0.10306314372E+02  0.51100000000E-03 0. -1.
         11    1    3    3    0    0  0.74952655556E+01 -0.66240713827E+01 -0.29446967025E+01  0.10427299092E+02  0.51100000000E-03 0.  1.
<mgrwt>
<rscale>  0 0.20010705E+02</rscale>
<asrwt>0</asrwt>
<pdfrwt beam="1">  1        4 0.11774170E-02 0.20010705E+02</pdfrwt>
<pdfrwt beam="2">  1       -4 0.20123697E-02 0.20010705E+02</pdfrwt>
<totfact> 0.12956358E+06</totfact>
</mgrwt>
</event>
<event>
 5    1  0.1157288E-006  0.2000092E+02  0.7818608E-02  0.1745310E+00
         -4   -1    0    0    0  501 -0.00000000000E+00  0.00000000000E+00  0.33058587853E+02  0.33089071170E+02  0.14200000000E+01 0.  1.
          4   -1    0    0  501    0  0.00000000000E+00 -0.00000000000E+00 -0.28248452459E+01  0.31616689680E+01  0.14200000000E+01 0. -1.
       1023    2    1    2    0    0  0.00000000000E+00  0.00000000000E+00  0.30233742608E+02  0.36250740138E+02  0.20000924190E+02 0.  0.
        -11    1    3    3    0    0  0.85720136712E+01 -0.51504407433E+01  0.15021246148E+02  0.18045617039E+02  0.51100000000E-03 0. -1.
         11    1    3    3    0    0 -0.85720136712E+01  0.51504407433E+01  0.15212496460E+02  0.18205123098E+02  0.51100000000E-03 0.  1.
<mgrwt>
<rscale>  0 0.20000924E+02</rscale>
<asrwt>0</asrwt>
<pdfrwt beam="2">  1        4 0.46284596E-03 0.20000924E+02</pdfrwt>
<pdfrwt beam="1">  1       -4 0.51141910E-02 0.20000924E+02</pdfrwt>
<totfact> 0.12139681E+06</totfact>
</mgrwt>
</event>
<event>
 5    1  0.1154861E-006  0.2000017E+02  0.7818608E-02  0.1745325E+00
         -4   -1    0    0    0  501 -0.00000000000E+00  0.00000000000E+00  0.70941062864E+02  0.70955273238E+02  0.14200000000E+01 0.  1.
          4   -1    0    0  501    0  0.00000000000E+00 -0.00000000000E+00 -0.10339624968E+01  0.17565530008E+01  0.14200000000E+01 0. -1.
       1023    2    1    2    0    0  0.00000000000E+00  0.00000000000E+00  0.69907100367E+02  0.72711826238E+02  0.20000174830E+02 0.  0.
        -11    1    3    3    0    0 -0.76056516336E+01 -0.64927430060E+01  0.34989820825E+02  0.36390784687E+02  0.51100000000E-03 0. -1.
         11    1    3    3    0    0  0.76056516336E+01  0.64927430060E+01  0.34917279541E+02  0.36321041551E+02  0.51100000000E-03 0.  1.
<mgrwt>
<rscale>  0 0.20000175E+02</rscale>
<asrwt>0</asrwt>
<pdfrwt beam="2">  1        4 0.21574809E-03 0.20000175E+02</pdfrwt>
<pdfrwt beam="1">  1       -4 0.10970689E-01 0.20000175E+02</pdfrwt>
<totfact> 0.10655906E+06</totfact>
</mgrwt>
</event>
<event>
 5    1  0.1154861E-006  0.2000023E+02  0.7818608E-02  0.1745323E+00
         -4   -1    0    0    0  501 -0.00000000000E+00  0.00000000000E+00  0.23024262755E+01  0.27051001375E+01  0.14200000000E+01 0.  1.
          4   -1    0    0  501    0  0.00000000000E+00 -0.00000000000E+00 -0.39524352303E+02  0.39549852402E+02  0.14200000000E+01 0. -1.
       1023    2    1    2    0    0  0.00000000000E+00  0.00000000000E+00 -0.37221926028E+02  0.42254952539E+02  0.20000230920E+02 0.  0.
        -11    1    3    3    0    0  0.99093727548E+01 -0.13434611469E+01 -0.18522513106E+02  0.21049561712E+02  0.51100000000E-03 0. -1.
         11    1    3    3    0    0 -0.99093727548E+01  0.13434611469E+01 -0.18699412922E+02  0.21205390827E+02  0.51100000000E-03 0.  1.
<mgrwt>
<rscale>  0 0.20000231E+02</rscale>
<asrwt>0</asrwt>
<pdfrwt beam="2">  1        4 0.61136056E-02 0.20000231E+02</pdfrwt>
<pdfrwt beam="1">  1       -4 0.38715591E-03 0.20000231E+02</pdfrwt>
<totfact> 0.11858650E+06</totfact>
</mgrwt>
</event>
<event>
 5    1  0.1154861E-006  0.2001234E+02  0.7818608E-02  0.1745083E+00
          4   -1    0    0  501    0  0.00000000000E+00  0.00000000000E+00  0.25077777951E+02  0.25117948701E+02  0.14200000000E+01 0.  1.
         -4   -1    0    0    0  501 -0.00000000000E+00 -0.00000000000E+00 -0.38213971206E+01  0.40766991493E+01  0.14200000000E+01 0. -1.
       1023    2    1    2    0    0  0.00000000000E+00  0.00000000000E+00  0.21256380830E+02  0.29194647850E+02  0.20012339621E+02 0.  0.
        -11    1    3    3    0    0  0.18598074347E+01  0.98316433915E+01  0.10543898881E+02  0.14535951958E+02  0.51100000000E-03 0. -1.
         11    1    3    3    0    0 -0.18598074347E+01 -0.98316433915E+01  0.10712481950E+02  0.14658695892E+02  0.51100000000E-03 0.  1.
<mgrwt>
<rscale>  0 0.20012340E+02</rscale>
<asrwt>0</asrwt>
<pdfrwt beam="1">  1        4 0.38808482E-02 0.20012340E+02</pdfrwt>
<pdfrwt beam="2">  1       -4 0.61063595E-03 0.20012340E+02</pdfrwt>
<totfact> 0.12482360E+06</totfact>
</mgrwt>
</event>
<event>
 5    1  0.1154861E-006  0.2000057E+02  0.7818608E-02  0.1745317E+00
         -4   -1    0    0    0  501 -0.00000000000E+00  0.00000000000E+00  0.21020601862E+01  0.25367414189E+01  0.14200000000E+01 0. -1.
          4   -1    0    0  501    0  0.00000000000E+00 -0.00000000000E+00 -0.42669424579E+02  0.42693046201E+02  0.14200000000E+01 0.  1.
       1023    2    1    2    0    0  0.00000000000E+00  0.00000000000E+00 -0.40567364393E+02  0.45229787620E+02  0.20000565851E+02 0.  0.
        -11    1    3    3    0    0  0.93294491655E+01 -0.36008431927E+01 -0.20213436044E+02  0.22551888843E+02  0.51100000000E-03 0. -1.
         11    1    3    3    0    0 -0.93294491655E+01  0.36008431927E+01 -0.20353928349E+02  0.22677898777E+02  0.51100000000E-03 0.  1.
<mgrwt>
<rscale>  0 0.20000566E+02</rscale>
<asrwt>0</asrwt>
<pdfrwt beam="2">  1        4 0.65997804E-02 0.20000566E+02</pdfrwt>
<pdfrwt beam="1">  1       -4 0.35864797E-03 0.20000566E+02</pdfrwt>
<totfact> 0.11724989E+06</totfact>
</mgrwt>
</event>
<event>
 5    1  0.1154861E-006  0.2000232E+02  0.7818608E-02  0.1745282E+00
         -4   -1    0    0    0  501 -0.00000000000E+00  0.00000000000E+00  0.11706814858E+03  0.11707676034E+03  0.14200000000E+01 0. -1.
          4   -1    0    0  501    0  0.00000000000E+00 -0.00000000000E+00 -0.24968733728E+00  0.14417849238E+01  0.14200000000E+01 0.  1.
       1023    2    1    2    0    0  0.00000000000E+00  0.00000000000E+00  0.11681846124E+03  0.11851854526E+03  0.20002316980E+02 0.  0.
        -11    1    3    3    0    0  0.60961545438E+01 -0.79275339462E+01  0.59117196214E+02  0.59957082844E+02  0.51100000000E-03 0.  1.
         11    1    3    3    0    0 -0.60961545438E+01  0.79275339462E+01  0.57701265028E+02  0.58561462420E+02  0.51100000000E-03 0. -1.
<mgrwt>
<rscale>  0 0.20002317E+02</rscale>
<asrwt>0</asrwt>
<pdfrwt beam="2">  1        4 0.13077569E-03 0.20002317E+02</pdfrwt>
<pdfrwt beam="1">  1       -4 0.18102847E-01 0.20002317E+02</pdfrwt>
<totfact> 0.93011347E+05</totfact>
</mgrwt>
</event>
<event>
 4    1  0.1154861E-006  0.2032865E+02  0.7818608E-02  0.1738870E+00
         -4   -1    0    0    0  501 -0.00000000000E+00  0.00000000000E+00  0.36271231370E+01  0.38951793605E+01  0.14200000000E+01 0. -1.
          4   -1    0    0  501    0  0.00000000000E+00 -0.00000000000E+00 -0.27181344997E+02  0.27218411340E+02  0.14200000000E+01 0.  1.
        -11    1    1    2    0    0 -0.96466419170E+01 -0.30998388413E+01 -0.10546163827E+02  0.14624919584E+02  0.51100000000E-03 0. -1.
         11    1    1    2    0    0  0.96466419170E+01  0.30998388413E+01 -0.13008058033E+02  0.16488671116E+02  0.51100000000E-03 0.  1.
<mgrwt>
<rscale>  0 0.20328654E+02</rscale>
<asrwt>0</asrwt>
<pdfrwt beam="2">  1        4 0.42052162E-02 0.20328654E+02</pdfrwt>
<pdfrwt beam="1">  1       -4 0.58148993E-03 0.20328654E+02</pdfrwt>
<totfact> 0.11992829E+06</totfact>
</mgrwt>
</event>
<event>
 5    1  0.1200447E-006  0.2000132E+02  0.7818608E-02  0.1745302E+00
          4   -1    0    0  501    0  0.00000000000E+00  0.00000000000E+00  0.96538878038E+01  0.97577635619E+01  0.14200000000E+01 0. -1.
         -4   -1    0    0    0  501 -0.00000000000E+00 -0.00000000000E+00 -0.10150894113E+02  0.10249734206E+02  0.14200000000E+01 0.  1.
       1023    2    1    2    0    0  0.00000000000E+00  0.00000000000E+00 -0.49700630900E+00  0.20007497768E+02  0.20001323748E+02 0.  0.
        -11    1    3    3    0    0  0.41389902137E+01 -0.91038543351E+01 -0.29134053384E+00  0.10004813007E+02  0.51100000000E-03 0.  1.
         11    1    3    3    0    0 -0.41389902137E+01  0.91038543351E+01 -0.20566577516E+00  0.10002684760E+02  0.51100000000E-03 0. -1.
<mgrwt>
<rscale>  0 0.20001324E+02</rscale>
<asrwt>0</asrwt>
<pdfrwt beam="1">  1        4 0.15008070E-02 0.20001324E+02</pdfrwt>
<pdfrwt beam="2">  1       -4 0.15772695E-02 0.20001324E+02</pdfrwt>
<totfact> 0.13011841E+06</totfact>
</mgrwt>
</event>
<event>
 5    1  0.1191236E-006  0.2000107E+02  0.7818608E-02  0.1745307E+00
         -4   -1    0    0    0  501 -0.00000000000E+00  0.00000000000E+00  0.65787865029E+01  0.67302921074E+01  0.14200000000E+01 0.  1.
          4   -1    0    0  501    0  0.00000000000E+00 -0.00000000000E+00 -0.14843170029E+02  0.14910938820E+02  0.14200000000E+01 0. -1.
       1023    2    1    2    0    0  0.00000000000E+00  0.00000000000E+00 -0.82643835258E+01  0.21641230928E+02  0.20001070996E+02 0.  0.
        -11    1    3    3    0    0  0.78386671937E+01  0.62097305094E+01 -0.42106173704E+01  0.10850564744E+02  0.51100000000E-03 0.  1.
         11    1    3    3    0    0 -0.78386671937E+01 -0.62097305094E+01 -0.40537661554E+01  0.10790666183E+02  0.51100000000E-03 0. -1.
<mgrwt>
<rscale>  0 0.20001071E+02</rscale>
<asrwt>0</asrwt>
<pdfrwt beam="2">  1        4 0.23004319E-02 0.20001071E+02</pdfrwt>
<pdfrwt beam="1">  1       -4 0.10289883E-02 0.20001071E+02</pdfrwt>
<totfact> 0.12915699E+06</totfact>
</mgrwt>
</event>
<event>
 5    1  0.1154861E-006  0.2000056E+02  0.7818608E-02  0.1745317E+00
         -4   -1    0    0    0  501 -0.00000000000E+00  0.00000000000E+00  0.17300399671E+02  0.17358577959E+02  0.14200000000E+01 0.  1.
          4   -1    0    0  501    0  0.00000000000E+00 -0.00000000000E+00 -0.56242617121E+01  0.58007516588E+01  0.14200000000E+01 0. -1.
       1023    2    1    2    0    0  0.00000000000E+00  0.00000000000E+00  0.11676137959E+02  0.23159329618E+02  0.20000558760E+02 0.  0.
        -11    1    3    3    0    0  0.24360286509E+01 -0.96990387061E+01  0.58379404946E+01  0.11579600032E+02  0.51100000000E-03 0.  1.
         11    1    3    3    0    0 -0.24360286509E+01  0.96990387061E+01  0.58381974642E+01  0.11579729587E+02  0.51100000000E-03 0. -1.
<mgrwt>
<rscale>  0 0.20000559E+02</rscale>
<asrwt>0</asrwt>
<pdfrwt beam="2">  1        4 0.88332244E-03 0.20000559E+02</pdfrwt>
<pdfrwt beam="1">  1       -4 0.26796513E-02 0.20000559E+02</pdfrwt>
<totfact> 0.12828738E+06</totfact>
</mgrwt>
</event>
<event>
 5    1  0.1176775E-006  0.2000086E+02  0.7818608E-02  0.1745311E+00
         -4   -1    0    0    0  501 -0.00000000000E+00  0.00000000000E+00  0.28926634585E+01  0.32224062258E+01  0.14200000000E+01 0.  1.
          4   -1    0    0  501    0  0.00000000000E+00 -0.00000000000E+00 -0.32362751556E+02  0.32393889675E+02  0.14200000000E+01 0. -1.
       1023    2    1    2    0    0  0.00000000000E+00  0.00000000000E+00 -0.29470088097E+02  0.35616295901E+02  0.20000861012E+02 0.  0.
        -11    1    3    3    0    0 -0.51562069611E+01  0.85685884841E+01 -0.14667676410E+02  0.17752405762E+02  0.51100000000E-03 0. -1.
         11    1    3    3    0    0  0.51562069611E+01 -0.85685884841E+01 -0.14802411688E+02  0.17863890138E+02  0.51100000000E-03 0.  1.
<mgrwt>
<rscale>  0 0.20000861E+02</rscale>
<asrwt>0</asrwt>
<pdfrwt beam="2">  1        4 0.50066447E-02 0.20000861E+02</pdfrwt>
<pdfrwt beam="1">  1       -4 0.47278524E-03 0.20000861E+02</pdfrwt>
<totfact> 0.12170673E+06</totfact>
</mgrwt>
</event>
<event>
 5    1  0.1200932E-006  0.2000109E+02  0.7818608E-02  0.1745306E+00
         -4   -1    0    0    0  501 -0.00000000000E+00  0.00000000000E+00  0.11548906210E+02  0.11635877047E+02  0.14200000000E+01 0.  1.
          4   -1    0    0  501    0  0.00000000000E+00 -0.00000000000E+00 -0.84810641987E+01  0.85991191376E+01  0.14200000000E+01 0. -1.
       1023    2    1    2    0    0  0.00000000000E+00  0.00000000000E+00  0.30678420115E+01  0.20234996185E+02  0.20001085370E+02 0.  0.
        -11    1    3    3    0    0 -0.93900312195E+01 -0.34404697351E+01  0.15708919595E+01  0.10123103285E+02  0.51100000000E-03 0. -1.
         11    1    3    3    0    0  0.93900312195E+01  0.34404697351E+01  0.14969500520E+01  0.10111892900E+02  0.51100000000E-03 0.  1.
<mgrwt>
<rscale>  0 0.20001085E+02</rscale>
<asrwt>0</asrwt>
<pdfrwt beam="2">  1        4 0.13205503E-02 0.20001085E+02</pdfrwt>
<pdfrwt beam="1">  1       -4 0.17925260E-02 0.20001085E+02</pdfrwt>
<totfact> 0.12998617E+06</totfact>
</mgrwt>
</event>
<event>
 5    1  0.1183554E-006  0.2000074E+02  0.7818608E-02  0.1745313E+00
          4   -1    0    0  501    0  0.00000000000E+00  0.00000000000E+00  0.32554080580E+02  0.32585035867E+02  0.14200000000E+01 0.  1.
         -4   -1    0    0    0  501 -0.00000000000E+00 -0.00000000000E+00 -0.28736969827E+01  0.32053914501E+01  0.14200000000E+01 0. -1.
       1023    2    1    2    0    0  0.00000000000E+00  0.00000000000E+00  0.29680383598E+02  0.35790427317E+02  0.20000737912E+02 0.  0.
        -11    1    3    3    0    0  0.91967681537E+01  0.39273001885E+01  0.14940588841E+02  0.17978471192E+02  0.51100000000E-03 0. -1.
         11    1    3    3    0    0 -0.91967681537E+01 -0.39273001885E+01  0.14739794757E+02  0.17811956124E+02  0.51100000000E-03 0.  1.
<mgrwt>
<rscale>  0 0.20000738E+02</rscale>
<asrwt>0</asrwt>
<pdfrwt beam="1">  1        4 0.50362161E-02 0.20000738E+02</pdfrwt>
<pdfrwt beam="2">  1       -4 0.47000337E-03 0.20000738E+02</pdfrwt>
<totfact> 0.12162317E+06</totfact>
</mgrwt>
</event>
<event>
 5    1  0.1154861E-006  0.2000023E+02  0.7818608E-02  0.1745324E+00
          4   -1    0    0  501    0  0.00000000000E+00  0.00000000000E+00  0.78895192822E+01  0.80162905701E+01  0.14200000000E+01 0.  1.
         -4   -1    0    0    0  501 -0.00000000000E+00 -0.00000000000E+00 -0.12406715159E+02  0.12487713203E+02  0.14200000000E+01 0. -1.
       1023    2    1    2    0    0  0.00000000000E+00  0.00000000000E+00 -0.45171958772E+01  0.20504003773E+02  0.20000227802E+02 0.  0.
        -11    1    3    3    0    0  0.73865837841E+01  0.67408398256E+01 -0.23013154729E+01  0.10261412901E+02  0.51100000000E-03 0. -1.
         11    1    3    3    0    0 -0.73865837841E+01 -0.67408398256E+01 -0.22158804043E+01  0.10242590873E+02  0.51100000000E-03 0.  1.
<mgrwt>
<rscale>  0 0.20000228E+02</rscale>
<asrwt>0</asrwt>
<pdfrwt beam="1">  1        4 0.12297545E-02 0.20000228E+02</pdfrwt>
<pdfrwt beam="2">  1       -4 0.19247077E-02 0.20000228E+02</pdfrwt>
<totfact> 0.12983783E+06</totfact>
</mgrwt>
</event>
<event>
 5    1  0.1154861E-006  0.2000800E+02  0.7818608E-02  0.1745169E+00
          4   -1    0    0  501    0  0.00000000000E+00  0.00000000000E+00  0.73774825346E+01  0.75128988112E+01  0.14200000000E+01 0.  1.
         -4   -1    0    0    0  501 -0.00000000000E+00 -0.00000000000E+00 -0.13268590693E+02  0.13344358320E+02  0.14200000000E+01 0. -1.
       1023    2    1    2    0    0  0.00000000000E+00  0.00000000000E+00 -0.58911081584E+01  0.20857257131E+02  0.20007998893E+02 0.  0.
        -11    1    3    3    0    0  0.25307834284E+01  0.96784510866E+01 -0.29999660512E+01  0.10443997164E+02  0.51100000000E-03 0.  1.
         11    1    3    3    0    0 -0.25307834284E+01 -0.96784510866E+01 -0.28911421071E+01  0.10413259967E+02  0.51100000000E-03 0. -1.
<mgrwt>
<rscale>  0 0.20007999E+02</rscale>
<asrwt>0</asrwt>
<pdfrwt beam="1">  1        4 0.11512422E-02 0.20007999E+02</pdfrwt>
<pdfrwt beam="2">  1       -4 0.20575666E-02 0.20007999E+02</pdfrwt>
<totfact> 0.12952614E+06</totfact>
</mgrwt>
</event>
<event>
 5    1  0.1154861E-006  0.2000068E+02  0.7818608E-02  0.1745315E+00
         -4   -1    0    0    0  501 -0.00000000000E+00  0.00000000000E+00  0.24500829960E+02  0.24541945088E+02  0.14200000000E+01 0.  1.
          4   -1    0    0  501    0  0.00000000000E+00 -0.00000000000E+00 -0.39122621684E+01  0.41619941464E+01  0.14200000000E+01 0. -1.
       1023    2    1    2    0    0  0.00000000000E+00  0.00000000000E+00  0.20588567791E+02  0.28703939235E+02  0.20000675086E+02 0.  0.
        -11    1    3    3    0    0 -0.90557996357E+01 -0.42424124270E+01  0.10343592669E+02  0.14387337482E+02  0.51100000000E-03 0. -1.
         11    1    3    3    0    0  0.90557996357E+01  0.42424124270E+01  0.10244975122E+02  0.14316601753E+02  0.51100000000E-03 0.  1.
<mgrwt>
<rscale>  0 0.20000675E+02</rscale>
<asrwt>0</asrwt>
<pdfrwt beam="2">  1        4 0.62425933E-03 0.20000675E+02</pdfrwt>
<pdfrwt beam="1">  1       -4 0.37917314E-02 0.20000675E+02</pdfrwt>
<totfact> 0.12523136E+06</totfact>
</mgrwt>
</event>
<event>
 4    1  0.1154861E-006  0.2003633E+02  0.7818608E-02  0.1744607E+00
         -4   -1    0    0    0  501 -0.00000000000E+00  0.00000000000E+00  0.93357366009E+02  0.93368164746E+02  0.14200000000E+01 0. -1.
          4   -1    0    0  501    0  0.00000000000E+00 -0.00000000000E+00 -0.59045165056E+00  0.15378664284E+01  0.14200000000E+01 0.  1.
        -11    1    1    2    0    0  0.38879049521E+01  0.92317999906E+01  0.47080447577E+02  0.48134296300E+02  0.51100000000E-03 0.  1.
         11    1    1    2    0    0 -0.38879049521E+01 -0.92317999906E+01  0.45686466781E+02  0.46771734875E+02  0.51100000000E-03 0. -1.
<mgrwt>
<rscale>  0 0.20036326E+02</rscale>
<asrwt>0</asrwt>
<pdfrwt beam="2">  1        4 0.16454738E-03 0.20036326E+02</pdfrwt>
<pdfrwt beam="1">  1       -4 0.14436386E-01 0.20036326E+02</pdfrwt>
<totfact> 0.99127737E+05</totfact>
</mgrwt>
</event>
<event>
 5    1  0.1154861E-006  0.2000011E+02  0.7818608E-02  0.1745326E+00
         -4   -1    0    0    0  501 -0.00000000000E+00  0.00000000000E+00  0.10748202734E+01  0.17809094924E+01  0.14200000000E+01 0. -1.
          4   -1    0    0  501    0  0.00000000000E+00 -0.00000000000E+00 -0.69320269916E+02  0.69334812477E+02  0.14200000000E+01 0.  1.
       1023    2    1    2    0    0  0.00000000000E+00  0.00000000000E+00 -0.68245449642E+02  0.71115721969E+02  0.20000112857E+02 0.  0.
        -11    1    3    3    0    0 -0.33174950326E+00 -0.99945409333E+01 -0.34175718215E+02  0.35608715534E+02  0.51100000000E-03 0.  1.
         11    1    3    3    0    0  0.33174950326E+00  0.99945409333E+01 -0.34069731427E+02  0.35507006435E+02  0.51100000000E-03 0. -1.
<mgrwt>
<rscale>  0 0.20000113E+02</rscale>
<asrwt>0</asrwt>
<pdfrwt beam="2">  1        4 0.10720088E-01 0.20000113E+02</pdfrwt>
<pdfrwt beam="1">  1       -4 0.22079023E-03 0.20000113E+02</pdfrwt>
<totfact> 0.10711467E+06</totfact>
</mgrwt>
</event>
<event>
 5    1  0.1213029E-006  0.2000086E+02  0.7818608E-02  0.1745311E+00
          4   -1    0    0  501    0  0.00000000000E+00  0.00000000000E+00  0.14931821903E+02  0.14999190157E+02  0.14200000000E+01 0.  1.
         -4   -1    0    0    0  501 -0.00000000000E+00 -0.00000000000E+00 -0.65388627789E+01  0.66912724083E+01  0.14200000000E+01 0. -1.
       1023    2    1    2    0    0  0.00000000000E+00  0.00000000000E+00  0.83929591244E+01  0.21690462565E+02  0.20000860067E+02 0.  0.
        -11    1    3    3    0    0  0.67869289164E+00  0.99769720774E+01  0.42935066783E+01  0.10882775185E+02  0.51100000000E-03 0. -1.
         11    1    3    3    0    0 -0.67869289164E+00 -0.99769720774E+01  0.40994524461E+01  0.10807687380E+02  0.51100000000E-03 0.  1.
<mgrwt>
<rscale>  0 0.20000860E+02</rscale>
<asrwt>0</asrwt>
<pdfrwt beam="1">  1        4 0.23141093E-02 0.20000860E+02</pdfrwt>
<pdfrwt beam="2">  1       -4 0.10228849E-02 0.20000860E+02</pdfrwt>
<totfact> 0.12913104E+06</totfact>
</mgrwt>
</event>
<event>
 4    1  0.1154861E-006  0.2003037E+02  0.7818608E-02  0.1744725E+00
          4   -1    0    0  501    0  0.00000000000E+00  0.00000000000E+00  0.43764803875E+01  0.46010847180E+01  0.14200000000E+01 0. -1.
         -4   -1    0    0    0  501 -0.00000000000E+00 -0.00000000000E+00 -0.22097495940E+02  0.22143074015E+02  0.14200000000E+01 0.  1.
        -11    1    1    2    0    0 -0.91113314789E+01 -0.41501167948E+01 -0.91984892750E+01  0.13596030153E+02  0.51100000000E-03 0.  1.
         11    1    1    2    0    0  0.91113314789E+01  0.41501167948E+01 -0.85225262779E+01  0.13148128580E+02  0.51100000000E-03 0. -1.
<mgrwt>
<rscale>  0 0.20030368E+02</rscale>
<asrwt>0</asrwt>
<pdfrwt beam="1">  1        4 0.69408795E-03 0.20030368E+02</pdfrwt>
<pdfrwt beam="2">  1       -4 0.34203979E-02 0.20030368E+02</pdfrwt>
<totfact> 0.12590474E+06</totfact>
</mgrwt>
</event>
<event>
 5    1  0.1248105E-006  0.2000117E+02  0.7818608E-02  0.1745305E+00
         -4   -1    0    0    0  501 -0.00000000000E+00  0.00000000000E+00  0.10824554431E+02  0.10917297222E+02  0.14200000000E+01 0. -1.
          4   -1    0    0  501    0  0.00000000000E+00 -0.00000000000E+00 -0.90515900631E+01  0.91622968010E+01  0.14200000000E+01 0.  1.
       1023    2    1    2    0    0  0.00000000000E+00  0.00000000000E+00  0.17729643682E+01  0.20079594023E+02  0.20001167303E+02 0.  0.
        -11    1    3    3    0    0  0.95321843418E+01 -0.30245471100E+01  0.92196996469E+00  0.10042930470E+02  0.51100000000E-03 0. -1.
         11    1    3    3    0    0 -0.95321843418E+01  0.30245471100E+01  0.85099440352E+00  0.10036663553E+02  0.51100000000E-03 0.  1.
<mgrwt>
<rscale>  0 0.20001167E+02</rscale>
<asrwt>0</asrwt>
<pdfrwt beam="2">  1        4 0.14082023E-02 0.20001167E+02</pdfrwt>
<pdfrwt beam="1">  1       -4 0.16809660E-02 0.20001167E+02</pdfrwt>
<totfact> 0.13007772E+06</totfact>
</mgrwt>
</event>
<event>
 5    1  0.1154861E-006  0.2000058E+02  0.7818608E-02  0.1745317E+00
         -4   -1    0    0    0  501 -0.00000000000E+00  0.00000000000E+00  0.84012986268E+02  0.84024985937E+02  0.14200000000E+01 0.  1.
          4   -1    0    0  501    0  0.00000000000E+00 -0.00000000000E+00 -0.75040653595E+00  0.16060852932E+01  0.14200000000E+01 0. -1.
       1023    2    1    2    0    0  0.00000000000E+00  0.00000000000E+00  0.83262579733E+02  0.85631071230E+02  0.20000579401E+02 0.  0.
        -11    1    3    3    0    0 -0.60773653620E+01 -0.79417107374E+01  0.41521744750E+02  0.42709020435E+02  0.51100000000E-03 0. -1.
         11    1    3    3    0    0  0.60773653620E+01  0.79417107374E+01  0.41740834983E+02  0.42922050795E+02  0.51100000000E-03 0.  1.
<mgrwt>
<rscale>  0 0.20000579E+02</rscale>
<asrwt>0</asrwt>
<pdfrwt beam="2">  1        4 0.18219165E-03 0.20000579E+02</pdfrwt>
<pdfrwt beam="1">  1       -4 0.12991820E-01 0.20000579E+02</pdfrwt>
<totfact> 0.10230245E+06</totfact>
</mgrwt>
</event>
<event>
 5    1  0.1154861E-006  0.2000017E+02  0.7818608E-02  0.1745325E+00
          4   -1    0    0  501    0  0.00000000000E+00  0.00000000000E+00  0.51269020452E+02  0.51288681579E+02  0.14200000000E+01 0.  1.
         -4   -1    0    0    0  501 -0.00000000000E+00 -0.00000000000E+00 -0.16693128589E+01  0.21915760130E+01  0.14200000000E+01 0. -1.
       1023    2    1    2    0    0  0.00000000000E+00  0.00000000000E+00  0.49599707593E+02  0.53480257592E+02  0.20000173969E+02 0.  0.
        -11    1    3    3    0    0  0.55571942695E+01  0.83137971696E+01  0.24827630938E+02  0.26765890417E+02  0.51100000000E-03 0.  1.
         11    1    3    3    0    0 -0.55571942695E+01 -0.83137971696E+01  0.24772076655E+02  0.26714367175E+02  0.51100000000E-03 0. -1.
<mgrwt>
<rscale>  0 0.20000174E+02</rscale>
<asrwt>0</asrwt>
<pdfrwt beam="1">  1        4 0.79292278E-02 0.20000174E+02</pdfrwt>
<pdfrwt beam="2">  1       -4 0.29850386E-03 0.20000174E+02</pdfrwt>
<totfact> 0.11376088E+06</totfact>
</mgrwt>
</event>
<event>
 5    1  0.1178288E-006  0.2000310E+02  0.7818608E-02  0.1745266E+00
          4   -1    0    0  501    0  0.00000000000E+00  0.00000000000E+00  0.24605007081E+01  0.28408561623E+01  0.14200000000E+01 0.  1.
         -4   -1    0    0    0  501 -0.00000000000E+00 -0.00000000000E+00 -0.37343065729E+02  0.37370054296E+02  0.14200000000E+01 0. -1.
       1023    2    1    2    0    0  0.00000000000E+00  0.00000000000E+00 -0.34882565021E+02  0.40210910458E+02  0.20003099195E+02 0.  0.
        -11    1    3    3    0    0  0.99220901775E+01  0.12475656226E+01 -0.17112803781E+02  0.19820503197E+02  0.51100000000E-03 0.  1.
         11    1    3    3    0    0 -0.99220901775E+01 -0.12475656226E+01 -0.17769761240E+02  0.20390407261E+02  0.51100000000E-03 0. -1.
<mgrwt>
<rscale>  0 0.20003099E+02</rscale>
<asrwt>0</asrwt>
<pdfrwt beam="1">  1        4 0.40987275E-03 0.20003099E+02</pdfrwt>
<pdfrwt beam="2">  1       -4 0.57764208E-02 0.20003099E+02</pdfrwt>
<totfact> 0.11949056E+06</totfact>
</mgrwt>
</event>
<event>
 5    1  0.1154861E-006  0.2000050E+02  0.7818608E-02  0.1745318E+00
          4   -1    0    0  501    0  0.00000000000E+00  0.00000000000E+00  0.72593017171E+01  0.73968818714E+01  0.14200000000E+01 0. -1.
         -4   -1    0    0    0  501 -0.00000000000E+00 -0.00000000000E+00 -0.13471552906E+02  0.13546185356E+02  0.14200000000E+01 0.  1.
       1023    2    1    2    0    0  0.00000000000E+00  0.00000000000E+00 -0.62122511885E+01  0.20943067227E+02  0.20000499995E+02 0.  0.
        -11    1    3    3    0    0 -0.82390245451E+01  0.56676917189E+01 -0.31347042204E+01  0.10480010767E+02  0.51100000000E-03 0. -1.
         11    1    3    3    0    0  0.82390245451E+01 -0.56676917189E+01 -0.30775469682E+01  0.10463056460E+02  0.51100000000E-03 0.  1.
<mgrwt>
<rscale>  0 0.20000500E+02</rscale>
<asrwt>0</asrwt>
<pdfrwt beam="1">  1        4 0.11331397E-02 0.20000500E+02</pdfrwt>
<pdfrwt beam="2">  1       -4 0.20888706E-02 0.20000500E+02</pdfrwt>
<totfact> 0.12957451E+06</totfact>
</mgrwt>
</event>
<event>
 4    1  0.1154861E-006  0.2002052E+02  0.7818608E-02  0.1744920E+00
         -4   -1    0    0    0  501 -0.00000000000E+00  0.00000000000E+00  0.12785359474E+01  0.19107731861E+01  0.14200000000E+01 0.  1.
          4   -1    0    0  501    0  0.00000000000E+00 -0.00000000000E+00 -0.62196309191E+02  0.62212517044E+02  0.14200000000E+01 0. -1.
        -11    1    1    2    0    0 -0.80985985481E+01  0.58746531391E+01 -0.29413820076E+02  0.31068821343E+02  0.51100000000E-03 0. -1.
         11    1    1    2    0    0  0.80985985481E+01 -0.58746531391E+01 -0.31503953167E+02  0.33054468887E+02  0.51100000000E-03 0.  1.
<mgrwt>
<rscale>  0 0.20020521E+02</rscale>
<asrwt>0</asrwt>
<pdfrwt beam="2">  1        4 0.96185415E-02 0.20020521E+02</pdfrwt>
<pdfrwt beam="1">  1       -4 0.24657828E-03 0.20020521E+02</pdfrwt>
<totfact> 0.10940760E+06</totfact>
</mgrwt>
</event>
<event>
 5    1  0.1154861E-006  0.2000339E+02  0.7818608E-02  0.1745261E+00
          4   -1    0    0  501    0  0.00000000000E+00  0.00000000000E+00  0.26549856561E+01  0.30108717731E+01  0.14200000000E+01 0. -1.
         -4   -1    0    0    0  501 -0.00000000000E+00 -0.00000000000E+00 -0.34939907371E+02  0.34968750723E+02  0.14200000000E+01 0.  1.
       1023    2    1    2    0    0  0.00000000000E+00  0.00000000000E+00 -0.32284921715E+02  0.37979622496E+02  0.20003388582E+02 0.  0.
        -11    1    3    3    0    0 -0.91033468144E+01  0.41425920081E+01 -0.16225148839E+02  0.19060100915E+02  0.51100000000E-03 0. -1.
         11    1    3    3    0    0  0.91033468144E+01 -0.41425920081E+01 -0.16059772876E+02  0.18919521581E+02  0.51100000000E-03 0.  1.
<mgrwt>
<rscale>  0 0.20003389E+02</rscale>
<asrwt>0</asrwt>
<pdfrwt beam="1">  1        4 0.43805393E-03 0.20003389E+02</pdfrwt>
<pdfrwt beam="2">  1       -4 0.54049646E-02 0.20003389E+02</pdfrwt>
<totfact> 0.12053568E+06</totfact>
</mgrwt>
</event>
<event>
 5    1  0.1154861E-006  0.2000076E+02  0.7818608E-02  0.1745313E+00
          4   -1    0    0  501    0  0.00000000000E+00  0.00000000000E+00  0.31410656742E+01  0.34471283077E+01  0.14200000000E+01 0. -1.
         -4   -1    0    0    0  501 -0.00000000000E+00 -0.00000000000E+00 -0.30036039164E+02  0.30069586772E+02  0.14200000000E+01 0.  1.
       1023    2    1    2    0    0  0.00000000000E+00  0.00000000000E+00 -0.26894973490E+02  0.33516715080E+02  0.20000764754E+02 0.  0.
        -11    1    3    3    0    0  0.21668741663E+01 -0.97627528957E+01 -0.13395573771E+02  0.16716700771E+02  0.51100000000E-03 0. -1.
         11    1    3    3    0    0 -0.21668741663E+01  0.97627528957E+01 -0.13499399719E+02  0.16800014309E+02  0.51100000000E-03 0.  1.
<mgrwt>
<rscale>  0 0.20000765E+02</rscale>
<asrwt>0</asrwt>
<pdfrwt beam="1">  1        4 0.50936476E-03 0.20000765E+02</pdfrwt>
<pdfrwt beam="2">  1       -4 0.46470528E-02 0.20000765E+02</pdfrwt>
<totfact> 0.12274758E+06</totfact>
</mgrwt>
</event>
<event>
 5    1  0.1154861E-006  0.2000117E+02  0.7818608E-02  0.1745305E+00
          4   -1    0    0  501    0  0.00000000000E+00  0.00000000000E+00  0.11690843898E+03  0.11691706250E+03  0.14200000000E+01 0.  1.
         -4   -1    0    0    0  501 -0.00000000000E+00 -0.00000000000E+00 -0.25148901484E+00  0.14420980288E+01  0.14200000000E+01 0. -1.
       1023    2    1    2    0    0  0.00000000000E+00  0.00000000000E+00  0.11665694996E+03  0.11835916053E+03  0.20001172641E+02 0.  0.
        -11    1    3    3    0    0  0.98930421998E+01  0.14588784339E+01  0.58952389911E+02  0.59794522213E+02  0.51100000000E-03 0.  1.
         11    1    3    3    0    0 -0.98930421998E+01 -0.14588784339E+01  0.57704560050E+02  0.58564638316E+02  0.51100000000E-03 0. -1.
<mgrwt>
<rscale>  0 0.20001173E+02</rscale>
<asrwt>0</asrwt>
<pdfrwt beam="1">  1        4 0.18078160E-01 0.20001173E+02</pdfrwt>
<pdfrwt beam="2">  1       -4 0.13093929E-03 0.20001173E+02</pdfrwt>
<totfact> 0.93062440E+05</totfact>
</mgrwt>
</event>
<event>
 5    1  0.1154861E-006  0.2000340E+02  0.7818608E-02  0.1745260E+00
         -4   -1    0    0    0  501 -0.00000000000E+00  0.00000000000E+00  0.39301495838E+02  0.39327140439E+02  0.14200000000E+01 0. -1.
          4   -1    0    0  501    0  0.00000000000E+00 -0.00000000000E+00 -0.23186194540E+01  0.27188961312E+01  0.14200000000E+01 0.  1.
       1023    2    1    2    0    0  0.00000000000E+00  0.00000000000E+00  0.36982876384E+02  0.42046036570E+02  0.20003400852E+02 0.  0.
        -11    1    3    3    0    0  0.99003079143E+01 -0.14193180032E+01  0.18367963401E+02  0.20914412260E+02  0.51100000000E-03 0.  1.
         11    1    3    3    0    0 -0.99003079143E+01  0.14193180032E+01  0.18614912983E+02  0.21131624311E+02  0.51100000000E-03 0. -1.
<mgrwt>
<rscale>  0 0.20003401E+02</rscale>
<asrwt>0</asrwt>
<pdfrwt beam="2">  1        4 0.38947389E-03 0.20003401E+02</pdfrwt>
<pdfrwt beam="1">  1       -4 0.60791466E-02 0.20003401E+02</pdfrwt>
<totfact> 0.11864347E+06</totfact>
</mgrwt>
</event>
<event>
 5    1  0.1154861E-006  0.2000539E+02  0.7818608E-02  0.1745221E+00
          4   -1    0    0  501    0  0.00000000000E+00  0.00000000000E+00  0.16563294964E+02  0.16624053058E+02  0.14200000000E+01 0.  1.
         -4   -1    0    0    0  501 -0.00000000000E+00 -0.00000000000E+00 -0.58842747730E+01  0.60531883833E+01  0.14200000000E+01 0. -1.
       1023    2    1    2    0    0  0.00000000000E+00  0.00000000000E+00  0.10679020191E+02  0.22677241441E+02  0.20005394451E+02 0.  0.
        -11    1    3    3    0    0 -0.36044099818E+01 -0.93307023721E+01  0.53245810083E+01  0.11331590411E+02  0.51100000000E-03 0. -1.
         11    1    3    3    0    0  0.36044099818E+01  0.93307023721E+01  0.53544391831E+01  0.11345651030E+02  0.51100000000E-03 0.  1.
<mgrwt>
<rscale>  0 0.20005394E+02</rscale>
<asrwt>0</asrwt>
<pdfrwt beam="1">  1        4 0.25658663E-02 0.20005394E+02</pdfrwt>
<pdfrwt beam="2">  1       -4 0.92294010E-03 0.20005394E+02</pdfrwt>
<totfact> 0.12850026E+06</totfact>
</mgrwt>
</event>
<event>
 4    1  0.1154861E-006  0.2025257E+02  0.7818608E-02  0.1740352E+00
         -4   -1    0    0    0  501 -0.00000000000E+00  0.00000000000E+00  0.40720988934E+02  0.40745740142E+02  0.14200000000E+01 0. -1.
          4   -1    0    0  501    0  0.00000000000E+00 -0.00000000000E+00 -0.22903343503E+01  0.26948156590E+01  0.14200000000E+01 0.  1.
        -11    1    1    2    0    0  0.30633168611E+01  0.96288079537E+01  0.17786378358E+02  0.20456126421E+02  0.51100000000E-03 0.  1.
         11    1    1    2    0    0 -0.30633168611E+01 -0.96288079537E+01  0.20644276226E+02  0.22984429381E+02  0.51100000000E-03 0. -1.
<mgrwt>
<rscale>  0 0.20252572E+02</rscale>
<asrwt>0</asrwt>
<pdfrwt beam="2">  1        4 0.38537700E-03 0.20252572E+02</pdfrwt>
<pdfrwt beam="1">  1       -4 0.62977857E-02 0.20252572E+02</pdfrwt>
<totfact> 0.11508979E+06</totfact>
</mgrwt>
</event>
<event>
 5    1  0.1154861E-006  0.2000349E+02  0.7818608E-02  0.1745259E+00
         -4   -1    0    0    0  501 -0.00000000000E+00  0.00000000000E+00  0.58452331079E+00  0.15356000459E+01  0.14200000000E+01 0. -1.
          4   -1    0    0  501    0  0.00000000000E+00 -0.00000000000E+00 -0.93408155954E+02  0.93418948821E+02  0.14200000000E+01 0.  1.
       1023    2    1    2    0    0  0.00000000000E+00  0.00000000000E+00 -0.92823632643E+02  0.94954548867E+02  0.20003489029E+02 0.  0.
        -11    1    3    3    0    0 -0.67688024297E+01  0.73628010783E+01 -0.46004383525E+02  0.47078985013E+02  0.51100000000E-03 0. -1.
         11    1    3    3    0    0  0.67688024297E+01 -0.73628010783E+01 -0.46819249118E+02  0.47875563854E+02  0.51100000000E-03 0.  1.
<mgrwt>
<rscale>  0 0.20003489E+02</rscale>
<asrwt>0</asrwt>
<pdfrwt beam="2">  1        4 0.14444469E-01 0.20003489E+02</pdfrwt>
<pdfrwt beam="1">  1       -4 0.16391671E-03 0.20003489E+02</pdfrwt>
<totfact> 0.99438738E+05</totfact>
</mgrwt>
</event>
<event>
 5    1  0.1154861E-006  0.2000017E+02  0.7818608E-02  0.1745325E+00
          4   -1    0    0  501    0  0.00000000000E+00  0.00000000000E+00  0.81289130696E+01  0.82520074948E+01  0.14200000000E+01 0. -1.
         -4   -1    0    0    0  501 -0.00000000000E+00 -0.00000000000E+00 -0.12044416762E+02  0.12127834726E+02  0.14200000000E+01 0.  1.
       1023    2    1    2    0    0  0.00000000000E+00  0.00000000000E+00 -0.39155036922E+01  0.20379842220E+02  0.20000169993E+02 0.  0.
        -11    1    3    3    0    0 -0.72665008262E+01  0.68701927335E+01 -0.19467190838E+01  0.10187801426E+02  0.51100000000E-03 0. -1.
         11    1    3    3    0    0  0.72665008262E+01 -0.68701927335E+01 -0.19687846084E+01  0.10192040794E+02  0.51100000000E-03 0.  1.
<mgrwt>
<rscale>  0 0.20000170E+02</rscale>
<asrwt>0</asrwt>
<pdfrwt beam="1">  1        4 0.12664876E-02 0.20000170E+02</pdfrwt>
<pdfrwt beam="2">  1       -4 0.18688728E-02 0.20000170E+02</pdfrwt>
<totfact> 0.12991219E+06</totfact>
</mgrwt>
</event>
<event>
 5    1  0.1154861E-006  0.2000052E+02  0.7818608E-02  0.1745318E+00
         -4   -1    0    0    0  501 -0.00000000000E+00  0.00000000000E+00  0.63765199359E+01  0.65327181550E+01  0.14200000000E+01 0. -1.
          4   -1    0    0  501    0  0.00000000000E+00 -0.00000000000E+00 -0.15304128923E+02  0.15369865390E+02  0.14200000000E+01 0.  1.
       1023    2    1    2    0    0  0.00000000000E+00  0.00000000000E+00 -0.89276089873E+01  0.21902583545E+02  0.20000524086E+02 0.  0.
        -11    1    3    3    0    0  0.65456275964E+01 -0.75604097542E+01 -0.44481486697E+01  0.10944910376E+02  0.51100000000E-03 0.  1.
         11    1    3    3    0    0 -0.65456275964E+01  0.75604097542E+01 -0.44794603176E+01  0.10957673169E+02  0.51100000000E-03 0. -1.
<mgrwt>
<rscale>  0 0.20000524E+02</rscale>
<asrwt>0</asrwt>
<pdfrwt beam="2">  1        4 0.23715533E-02 0.20000524E+02</pdfrwt>
<pdfrwt beam="1">  1       -4 0.99807497E-03 0.20000524E+02</pdfrwt>
<totfact> 0.12901194E+06</totfact>
</mgrwt>
</event>
<event>
 5    1  0.1154861E-006  0.2000006E+02  0.7818608E-02  0.1745327E+00
         -4   -1    0    0    0  501 -0.00000000000E+00  0.00000000000E+00  0.44528706342E+02  0.44551342163E+02  0.14200000000E+01 0. -1.
          4   -1    0    0  501    0  0.00000000000E+00 -0.00000000000E+00 -0.19956746280E+01  0.24493095396E+01  0.14200000000E+01 0.  1.
       1023    2    1    2    0    0  0.00000000000E+00  0.00000000000E+00  0.42533031714E+02  0.47000651703E+02  0.20000061841E+02 0.  0.
        -11    1    3    3    0    0  0.77835202311E+01  0.62782924567E+01  0.21215309431E+02  0.23453986823E+02  0.51100000000E-03 0. -1.
         11    1    3    3    0    0 -0.77835202311E+01 -0.62782924567E+01  0.21317722283E+02  0.23546664880E+02  0.51100000000E-03 0.  1.
<mgrwt>
<rscale>  0 0.20000062E+02</rscale>
<asrwt>0</asrwt>
<pdfrwt beam="2">  1        4 0.34366309E-03 0.20000062E+02</pdfrwt>
<pdfrwt beam="1">  1       -4 0.68872062E-02 0.20000062E+02</pdfrwt>
<totfact> 0.11648168E+06</totfact>
</mgrwt>
</event>
<event>
 5    1  0.1154861E-006  0.2000046E+02  0.7818608E-02  0.1745319E+00
          4   -1    0    0  501    0  0.00000000000E+00  0.00000000000E+00  0.35901154027E+01  0.38607419759E+01  0.14200000000E+01 0.  1.
         -4   -1    0    0    0  501 -0.00000000000E+00 -0.00000000000E+00 -0.26553501263E+02  0.26591442784E+02  0.14200000000E+01 0. -1.
       1023    2    1    2    0    0  0.00000000000E+00  0.00000000000E+00 -0.22963385860E+02  0.30452184759E+02  0.20000461656E+02 0.  0.
        -11    1    3    3    0    0  0.65768609477E+01  0.75330300974E+01 -0.11398660537E+02  0.15163479306E+02  0.51100000000E-03 0. -1.
         11    1    3    3    0    0 -0.65768609477E+01 -0.75330300974E+01 -0.11564725323E+02  0.15288705453E+02  0.51100000000E-03 0.  1.
<mgrwt>
<rscale>  0 0.20000462E+02</rscale>
<asrwt>0</asrwt>
<pdfrwt beam="1">  1        4 0.57606147E-03 0.20000462E+02</pdfrwt>
<pdfrwt beam="2">  1       -4 0.41088899E-02 0.20000462E+02</pdfrwt>
<totfact> 0.12431606E+06</totfact>
</mgrwt>
</event>
<event>
 5    1  0.1154861E-006  0.2000022E+02  0.7818608E-02  0.1745324E+00
          4   -1    0    0  501    0  0.00000000000E+00  0.00000000000E+00  0.10042427716E+03  0.10043431606E+03  0.14200000000E+01 0. -1.
         -4   -1    0    0    0  501 -0.00000000000E+00 -0.00000000000E+00 -0.47426008978E+00  0.14971047501E+01  0.14200000000E+01 0.  1.
       1023    2    1    2    0    0  0.00000000000E+00  0.00000000000E+00  0.99950017071E+02  0.10193142081E+03  0.20000215917E+02 0.  0.
        -11    1    3    3    0    0  0.91972817980E+01  0.39256122561E+01  0.50187286722E+02  0.51173862203E+02  0.51100000000E-03 0.  1.
         11    1    3    3    0    0 -0.91972817980E+01 -0.39256122561E+01  0.49762730349E+02  0.50757558611E+02  0.51100000000E-03 0. -1.
<mgrwt>
<rscale>  0 0.20000216E+02</rscale>
<asrwt>0</asrwt>
<pdfrwt beam="1">  1        4 0.15529339E-01 0.20000216E+02</pdfrwt>
<pdfrwt beam="2">  1       -4 0.15241570E-03 0.20000216E+02</pdfrwt>
<totfact> 0.97463861E+05</totfact>
</mgrwt>
</event>
<event>
 5    1  0.1154861E-006  0.2000029E+02  0.7818608E-02  0.1745322E+00
          4   -1    0    0  501    0  0.00000000000E+00  0.00000000000E+00  0.24989484157E+02  0.25029796612E+02  0.14200000000E+01 0.  1.
         -4   -1    0    0    0  501 -0.00000000000E+00 -0.00000000000E+00 -0.38308009211E+01  0.40855153527E+01  0.14200000000E+01 0. -1.
       1023    2    1    2    0    0  0.00000000000E+00  0.00000000000E+00  0.21158683236E+02  0.29115311965E+02  0.20000287861E+02 0.  0.
        -11    1    3    3    0    0 -0.96138561465E+01  0.27524571151E+01  0.10542855163E+02  0.14531140541E+02  0.51100000000E-03 0. -1.
         11    1    3    3    0    0  0.96138561465E+01 -0.27524571151E+01  0.10615828073E+02  0.14584171423E+02  0.51100000000E-03 0.  1.
<mgrwt>
<rscale>  0 0.20000288E+02</rscale>
<asrwt>0</asrwt>
<pdfrwt beam="1">  1        4 0.38672305E-02 0.20000288E+02</pdfrwt>
<pdfrwt beam="2">  1       -4 0.61204834E-03 0.20000288E+02</pdfrwt>
<totfact> 0.12501843E+06</totfact>
</mgrwt>
</event>
<event>
 5    1  0.1197588E-006  0.2000085E+02  0.7818608E-02  0.1745311E+00
          4   -1    0    0  501    0  0.00000000000E+00  0.00000000000E+00  0.74113505065E+01  0.75461590449E+01  0.14200000000E+01 0. -1.
         -4   -1    0    0    0  501 -0.00000000000E+00 -0.00000000000E+00 -0.13199106511E+02  0.13275270720E+02  0.14200000000E+01 0.  1.
       1023    2    1    2    0    0  0.00000000000E+00  0.00000000000E+00 -0.57877560046E+01  0.20821429765E+02  0.20000845429E+02 0.  0.
        -11    1    3    3    0    0  0.96850514355E+01  0.24914599308E+01 -0.29244125323E+01  0.10419202600E+02  0.51100000000E-03 0. -1.
         11    1    3    3    0    0 -0.96850514355E+01 -0.24914599308E+01 -0.28633434722E+01  0.10402227165E+02  0.51100000000E-03 0.  1.
<mgrwt>
<rscale>  0 0.20000845E+02</rscale>
<asrwt>0</asrwt>
<pdfrwt beam="1">  1        4 0.11564364E-02 0.20000845E+02</pdfrwt>
<pdfrwt beam="2">  1       -4 0.20468604E-02 0.20000845E+02</pdfrwt>
<totfact> 0.12964189E+06</totfact>
</mgrwt>
</event>
<event>
 5    1  0.1154861E-006  0.2000917E+02  0.7818608E-02  0.1745146E+00
          4   -1    0    0  501    0  0.00000000000E+00  0.00000000000E+00  0.31036292276E+02  0.31068759844E+02  0.14200000000E+01 0.  1.
         -4   -1    0    0    0  501 -0.00000000000E+00 -0.00000000000E+00 -0.30327661619E+01  0.33487416432E+01  0.14200000000E+01 0. -1.
       1023    2    1    2    0    0  0.00000000000E+00  0.00000000000E+00  0.28003526114E+02  0.34417501487E+02  0.20009171242E+02 0.  0.
        -11    1    3    3    0    0 -0.88628493837E+01 -0.46384594020E+01  0.13722661552E+02  0.16981662026E+02  0.51100000000E-03 0. -1.
         11    1    3    3    0    0  0.88628493837E+01  0.46384594020E+01  0.14280864562E+02  0.17435839461E+02  0.51100000000E-03 0.  1.
<mgrwt>
<rscale>  0 0.20009171E+02</rscale>
<asrwt>0</asrwt>
<pdfrwt beam="1">  1        4 0.48016175E-02 0.20009171E+02</pdfrwt>
<pdfrwt beam="2">  1       -4 0.49338272E-03 0.20009171E+02</pdfrwt>
<totfact> 0.12219416E+06</totfact>
</mgrwt>
</event>
<event>
 5    1  0.1170958E-006  0.2000237E+02  0.7818608E-02  0.1745281E+00
          4   -1    0    0  501    0  0.00000000000E+00  0.00000000000E+00  0.53554263856E+01  0.55404866006E+01  0.14200000000E+01 0.  1.
         -4   -1    0    0    0  501 -0.00000000000E+00 -0.00000000000E+00 -0.18146590200E+02  0.18202064055E+02  0.14200000000E+01 0. -1.
       1023    2    1    2    0    0  0.00000000000E+00  0.00000000000E+00 -0.12791163814E+02  0.23742550656E+02  0.20002370858E+02 0.  0.
        -11    1    3    3    0    0  0.32696893362E+01  0.94515433588E+01 -0.64361744946E+01  0.11893144353E+02  0.51100000000E-03 0.  1.
         11    1    3    3    0    0 -0.32696893362E+01 -0.94515433588E+01 -0.63549893195E+01  0.11849406303E+02  0.51100000000E-03 0. -1.
<mgrwt>
<rscale>  0 0.20002371E+02</rscale>
<asrwt>0</asrwt>
<pdfrwt beam="1">  1        4 0.84241438E-03 0.20002371E+02</pdfrwt>
<pdfrwt beam="2">  1       -4 0.28102857E-02 0.20002371E+02</pdfrwt>
<totfact> 0.12793219E+06</totfact>
</mgrwt>
</event>
<event>
 5    1  0.1154861E-006  0.2000040E+02  0.7818608E-02  0.1745320E+00
         -4   -1    0    0    0  501 -0.00000000000E+00  0.00000000000E+00  0.15820999119E+02  0.15884596726E+02  0.14200000000E+01 0.  1.
          4   -1    0    0  501    0  0.00000000000E+00 -0.00000000000E+00 -0.61637983611E+01  0.63252517924E+01  0.14200000000E+01 0. -1.
       1023    2    1    2    0    0  0.00000000000E+00  0.00000000000E+00  0.96572007583E+01  0.22209848518E+02  0.20000396114E+02 0.  0.
        -11    1    3    3    0    0  0.87726627292E+01  0.48003095202E+01  0.47873771655E+01  0.11086999740E+02  0.51100000000E-03 0.  1.
         11    1    3    3    0    0 -0.87726627292E+01 -0.48003095202E+01  0.48698235929E+01  0.11122848778E+02  0.51100000000E-03 0. -1.
<mgrwt>
<rscale>  0 0.20000396E+02</rscale>
<asrwt>0</asrwt>
<pdfrwt beam="2">  1        4 0.96558830E-03 0.20000396E+02</pdfrwt>
<pdfrwt beam="1">  1       -4 0.24513114E-02 0.20000396E+02</pdfrwt>
<totfact> 0.12883541E+06</totfact>
</mgrwt>
</event>
<event>
 5    1  0.1154861E-006  0.2000313E+02  0.7818608E-02  0.1745266E+00
          4   -1    0    0  501    0  0.00000000000E+00  0.00000000000E+00  0.25989795873E+01  0.29616034332E+01  0.14200000000E+01 0.  1.
         -4   -1    0    0    0  501 -0.00000000000E+00 -0.00000000000E+00 -0.35600993421E+02  0.35629301601E+02  0.14200000000E+01 0. -1.
       1023    2    1    2    0    0  0.00000000000E+00  0.00000000000E+00 -0.33002013834E+02  0.38590905034E+02  0.20003125612E+02 0.  0.
        -11    1    3    3    0    0  0.49601395641E+01 -0.86848826554E+01 -0.16564615576E+02  0.19349849113E+02  0.51100000000E-03 0. -1.
         11    1    3    3    0    0 -0.49601395641E+01  0.86848826554E+01 -0.16437398257E+02  0.19241055921E+02  0.51100000000E-03 0.  1.
<mgrwt>
<rscale>  0 0.20003126E+02</rscale>
<asrwt>0</asrwt>
<pdfrwt beam="1">  1        4 0.42991474E-03 0.20003126E+02</pdfrwt>
<pdfrwt beam="2">  1       -4 0.55071473E-02 0.20003126E+02</pdfrwt>
<totfact> 0.12024901E+06</totfact>
</mgrwt>
</event>
<event>
 4    1  0.1154861E-006  0.2002927E+02  0.7818608E-02  0.1744747E+00
          4   -1    0    0  501    0  0.00000000000E+00  0.00000000000E+00  0.15862065941E+02  0.15925499550E+02  0.14200000000E+01 0.  1.
         -4   -1    0    0    0  501 -0.00000000000E+00 -0.00000000000E+00 -0.61659060819E+01  0.63273057308E+01  0.14200000000E+01 0. -1.
        -11    1    1    2    0    0  0.78166041202E+01 -0.62501856881E+01  0.44492965346E+01  0.10952641737E+02  0.51100000000E-03 0. -1.
         11    1    1    2    0    0 -0.78166041202E+01  0.62501856881E+01  0.52468633244E+01  0.11300163544E+02  0.51100000000E-03 0.  1.
<mgrwt>
<rscale>  0 0.20029274E+02</rscale>
<asrwt>0</asrwt>
<pdfrwt beam="1">  1        4 0.24576127E-02 0.20029274E+02</pdfrwt>
<pdfrwt beam="2">  1       -4 0.96589582E-03 0.20029274E+02</pdfrwt>
<totfact> 0.12843206E+06</totfact>
</mgrwt>
</event>
<event>
 5    1  0.1154861E-006  0.2000595E+02  0.7818608E-02  0.1745210E+00
          4   -1    0    0  501    0  0.00000000000E+00  0.00000000000E+00  0.65876442009E+01  0.67389506689E+01  0.14200000000E+01 0. -1.
         -4   -1    0    0    0  501 -0.00000000000E+00 -0.00000000000E+00 -0.14830912963E+02  0.14898737507E+02  0.14200000000E+01 0.  1.
       1023    2    1    2    0    0  0.00000000000E+00  0.00000000000E+00 -0.82432687618E+01  0.21637688176E+02  0.20005950858E+02 0.  0.
        -11    1    3    3    0    0 -0.81021088687E+01 -0.58658426733E+01 -0.40296139166E+01  0.10783787227E+02  0.51100000000E-03 0.  1.
         11    1    3    3    0    0  0.81021088687E+01  0.58658426733E+01 -0.42136548452E+01  0.10853900949E+02  0.51100000000E-03 0. -1.
<mgrwt>
<rscale>  0 0.20005951E+02</rscale>
<asrwt>0</asrwt>
<pdfrwt beam="1">  1        4 0.10303400E-02 0.20005951E+02</pdfrwt>
<pdfrwt beam="2">  1       -4 0.22985351E-02 0.20005951E+02</pdfrwt>
<totfact> 0.12909480E+06</totfact>
</mgrwt>
</event>
<event>
 5    1  0.1159930E-006  0.2000202E+02  0.7818608E-02  0.1745288E+00
          4   -1    0    0  501    0  0.00000000000E+00  0.00000000000E+00  0.29365005466E+02  0.29399318802E+02  0.14200000000E+01 0. -1.
         -4   -1    0    0    0  501 -0.00000000000E+00 -0.00000000000E+00 -0.32201139384E+01  0.35193087072E+01  0.14200000000E+01 0.  1.
       1023    2    1    2    0    0  0.00000000000E+00  0.00000000000E+00  0.26144891528E+02  0.32918627509E+02  0.20002017001E+02 0.  0.
        -11    1    3    3    0    0 -0.98781886823E+01 -0.15611063978E+01  0.12961971703E+02  0.16371572176E+02  0.51100000000E-03 0. -1.
         11    1    3    3    0    0  0.98781886823E+01  0.15611063978E+01  0.13182919824E+02  0.16547055333E+02  0.51100000000E-03 0.  1.
<mgrwt>
<rscale>  0 0.20002017E+02</rscale>
<asrwt>0</asrwt>
<pdfrwt beam="1">  1        4 0.45433474E-02 0.20002017E+02</pdfrwt>
<pdfrwt beam="2">  1       -4 0.52105664E-03 0.20002017E+02</pdfrwt>
<totfact> 0.12303290E+06</totfact>
</mgrwt>
</event>
<event>
 5    1  0.1154861E-006  0.2000539E+02  0.7818608E-02  0.1745221E+00
         -4   -1    0    0    0  501 -0.00000000000E+00  0.00000000000E+00  0.15502890442E+02  0.15567787642E+02  0.14200000000E+01 0. -1.
          4   -1    0    0  501    0  0.00000000000E+00 -0.00000000000E+00 -0.62962718705E+01  0.64544124029E+01  0.14200000000E+01 0.  1.
       1023    2    1    2    0    0  0.00000000000E+00  0.00000000000E+00  0.92066185718E+01  0.22022200045E+02  0.20005386007E+02 0.  0.
        -11    1    3    3    0    0 -0.56308583836E+01 -0.82648311857E+01  0.48231040051E+01  0.11102987579E+02  0.51100000000E-03 0. -1.
         11    1    3    3    0    0  0.56308583836E+01  0.82648311857E+01  0.43835145667E+01  0.10919212466E+02  0.51100000000E-03 0.  1.
<mgrwt>
<rscale>  0 0.20005386E+02</rscale>
<asrwt>0</asrwt>
<pdfrwt beam="2">  1        4 0.98581397E-03 0.20005386E+02</pdfrwt>
<pdfrwt beam="1">  1       -4 0.24022168E-02 0.20005386E+02</pdfrwt>
<totfact> 0.12887856E+06</totfact>
</mgrwt>
</event>
<event>
 5    1  0.1154861E-006  0.2000013E+02  0.7818608E-02  0.1745325E+00
          4   -1    0    0  501    0  0.00000000000E+00  0.00000000000E+00  0.63962535115E+01  0.65519813021E+01  0.14200000000E+01 0.  1.
         -4   -1    0    0    0  501 -0.00000000000E+00 -0.00000000000E+00 -0.15257232878E+02  0.15323170530E+02  0.14200000000E+01 0. -1.
       1023    2    1    2    0    0  0.00000000000E+00  0.00000000000E+00 -0.88609793664E+01  0.21875151832E+02  0.20000132808E+02 0.  0.
        -11    1    3    3    0    0 -0.24817965830E+01 -0.96872002182E+01 -0.44164198531E+01  0.10931876643E+02  0.51100000000E-03 0. -1.
         11    1    3    3    0    0  0.24817965830E+01  0.96872002182E+01 -0.44445595133E+01  0.10943275190E+02  0.51100000000E-03 0.  1.
<mgrwt>
<rscale>  0 0.20000133E+02</rscale>
<asrwt>0</asrwt>
<pdfrwt beam="1">  1        4 0.10010902E-02 0.20000133E+02</pdfrwt>
<pdfrwt beam="2">  1       -4 0.23643178E-02 0.20000133E+02</pdfrwt>
<totfact> 0.12903304E+06</totfact>
</mgrwt>
</event>
<event>
 5    1  0.1171022E-006  0.2000197E+02  0.7818608E-02  0.1745289E+00
          4   -1    0    0  501    0  0.00000000000E+00  0.00000000000E+00  0.58669556442E+01  0.60363539104E+01  0.14200000000E+01 0. -1.
         -4   -1    0    0    0  501 -0.00000000000E+00 -0.00000000000E+00 -0.16605233625E+02  0.16665838825E+02  0.14200000000E+01 0.  1.
       1023    2    1    2    0    0  0.00000000000E+00  0.00000000000E+00 -0.10738277980E+02  0.22702192735E+02  0.20001973427E+02 0.  0.
        -11    1    3    3    0    0 -0.44476367557E+01 -0.89571661208E+01 -0.54670213451E+01  0.11397395329E+02  0.51100000000E-03 0.  1.
         11    1    3    3    0    0  0.44476367557E+01  0.89571661208E+01 -0.52712566352E+01  0.11304797406E+02  0.51100000000E-03 0. -1.
<mgrwt>
<rscale>  0 0.20001973E+02</rscale>
<asrwt>0</asrwt>
<pdfrwt beam="1">  1        4 0.92030114E-03 0.20001973E+02</pdfrwt>
<pdfrwt beam="2">  1       -4 0.25723439E-02 0.20001973E+02</pdfrwt>
<totfact> 0.12853073E+06</totfact>
</mgrwt>
</event>
<event>
 5    1  0.1154861E-006  0.2000291E+02  0.7818608E-02  0.1745270E+00
          4   -1    0    0  501    0  0.00000000000E+00  0.00000000000E+00  0.53065356215E+01  0.54932431498E+01  0.14200000000E+01 0.  1.
         -4   -1    0    0    0  501 -0.00000000000E+00 -0.00000000000E+00 -0.18309619290E+02  0.18364600691E+02  0.14200000000E+01 0. -1.
       1023    2    1    2    0    0  0.00000000000E+00  0.00000000000E+00 -0.13003083668E+02  0.23857843840E+02  0.20002912984E+02 0.  0.
        -11    1    3    3    0    0 -0.93396593082E+01  0.35775619725E+01 -0.64648565213E+01  0.11908927566E+02  0.51100000000E-03 0. -1.
         11    1    3    3    0    0  0.93396593082E+01 -0.35775619725E+01 -0.65382271467E+01  0.11948916275E+02  0.51100000000E-03 0.  1.
<mgrwt>
<rscale>  0 0.20002913E+02</rscale>
<asrwt>0</asrwt>
<pdfrwt beam="1">  1        4 0.83498156E-03 0.20002913E+02</pdfrwt>
<pdfrwt beam="2">  1       -4 0.28354559E-02 0.20002913E+02</pdfrwt>
<totfact> 0.12785992E+06</totfact>
</mgrwt>
</event>
<event>
 5    1  0.1154861E-006  0.2000627E+02  0.7818608E-02  0.1745203E+00
          4   -1    0    0  501    0  0.00000000000E+00  0.00000000000E+00  0.54374995777E+01  0.56198577969E+01  0.14200000000E+01 0. -1.
         -4   -1    0    0    0  501 -0.00000000000E+00 -0.00000000000E+00 -0.17887895061E+02  0.17944168683E+02  0.14200000000E+01 0.  1.
       1023    2    1    2    0    0  0.00000000000E+00  0.00000000000E+00 -0.12450395484E+02  0.23564026480E+02  0.20006273922E+02 0.  0.
        -11    1    3    3    0    0  0.80095024089E+01 -0.59919258805E+01 -0.61235746252E+01  0.11728319191E+02  0.51100000000E-03 0. -1.
         11    1    3    3    0    0 -0.80095024089E+01  0.59919258805E+01 -0.63268208585E+01  0.11835707289E+02  0.51100000000E-03 0.  1.
<mgrwt>
<rscale>  0 0.20006274E+02</rscale>
<asrwt>0</asrwt>
<pdfrwt beam="1">  1        4 0.85489470E-03 0.20006274E+02</pdfrwt>
<pdfrwt beam="2">  1       -4 0.27703401E-02 0.20006274E+02</pdfrwt>
<totfact> 0.12798247E+06</totfact>
</mgrwt>
</event>
<event>
 5    1  0.1154861E-006  0.2000093E+02  0.7818608E-02  0.1745310E+00
          4   -1    0    0  501    0  0.00000000000E+00  0.00000000000E+00  0.11800528135E+03  0.11801382473E+03  0.14200000000E+01 0.  1.
         -4   -1    0    0    0  501 -0.00000000000E+00 -0.00000000000E+00 -0.23799838733E+00  0.14398066649E+01  0.14200000000E+01 0. -1.
       1023    2    1    2    0    0  0.00000000000E+00  0.00000000000E+00  0.11776728296E+03  0.11945363139E+03  0.20000927881E+02 0.  0.
        -11    1    3    3    0    0  0.35136981054E+01 -0.93627752700E+01  0.58641509839E+02  0.59488102269E+02  0.51100000000E-03 0. -1.
         11    1    3    3    0    0 -0.35136981054E+01  0.93627752700E+01  0.59125773123E+02  0.59965529121E+02  0.51100000000E-03 0.  1.
<mgrwt>
<rscale>  0 0.20000928E+02</rscale>
<asrwt>0</asrwt>
<pdfrwt beam="1">  1        4 0.18247766E-01 0.20000928E+02</pdfrwt>
<pdfrwt beam="2">  1       -4 0.12971909E-03 0.20000928E+02</pdfrwt>
<totfact> 0.92787341E+05</totfact>
</mgrwt>
</event>
<event>
 5    1  0.1154861E-006  0.2000040E+02  0.7818608E-02  0.1745320E+00
         -4   -1    0    0    0  501 -0.00000000000E+00  0.00000000000E+00  0.74217759853E+01  0.75563985321E+01  0.14200000000E+01 0.  1.
          4   -1    0    0  501    0  0.00000000000E+00 -0.00000000000E+00 -0.13180198236E+02  0.13256471082E+02  0.14200000000E+01 0. -1.
       1023    2    1    2    0    0  0.00000000000E+00  0.00000000000E+00 -0.57584222510E+01  0.20812869614E+02  0.20000402865E+02 0.  0.
        -11    1    3    3    0    0  0.59739952433E+01 -0.80196870875E+01 -0.28847449108E+01  0.10407965873E+02  0.51100000000E-03 0.  1.
         11    1    3    3    0    0 -0.59739952433E+01  0.80196870875E+01 -0.28736773402E+01  0.10404903741E+02  0.51100000000E-03 0. -1.
<mgrwt>
<rscale>  0 0.20000403E+02</rscale>
<asrwt>0</asrwt>
<pdfrwt beam="2">  1        4 0.20439455E-02 0.20000403E+02</pdfrwt>
<pdfrwt beam="1">  1       -4 0.11580344E-02 0.20000403E+02</pdfrwt>
<totfact> 0.12965281E+06</totfact>
</mgrwt>
</event>
<event>
 5    1  0.1187045E-006  0.2000132E+02  0.7818608E-02  0.1745302E+00
          4   -1    0    0  501    0  0.00000000000E+00  0.00000000000E+00  0.34673954428E+02  0.34703018827E+02  0.14200000000E+01 0.  1.
         -4   -1    0    0    0  501 -0.00000000000E+00 -0.00000000000E+00 -0.26774166115E+01  0.30306698454E+01  0.14200000000E+01 0. -1.
       1023    2    1    2    0    0  0.00000000000E+00  0.00000000000E+00  0.31996537816E+02  0.37733688672E+02  0.20001320670E+02 0.  0.
        -11    1    3    3    0    0  0.28221022447E+00  0.99966641616E+01  0.16029262748E+02  0.18893125773E+02  0.51100000000E-03 0. -1.
         11    1    3    3    0    0 -0.28221022447E+00 -0.99966641616E+01  0.15967275068E+02  0.18840562899E+02  0.51100000000E-03 0.  1.
<mgrwt>
<rscale>  0 0.20001321E+02</rscale>
<asrwt>0</asrwt>
<pdfrwt beam="1">  1        4 0.53638634E-02 0.20001321E+02</pdfrwt>
<pdfrwt beam="2">  1       -4 0.44131931E-03 0.20001321E+02</pdfrwt>
<totfact> 0.12067814E+06</totfact>
</mgrwt>
</event>
<event>
 5    1  0.1170296E-006  0.2000401E+02  0.7818608E-02  0.1745248E+00
         -4   -1    0    0    0  501 -0.00000000000E+00  0.00000000000E+00  0.11517547880E+02  0.11604753732E+02  0.14200000000E+01 0. -1.
          4   -1    0    0  501    0  0.00000000000E+00 -0.00000000000E+00 -0.85068499888E+01  0.86245519729E+01  0.14200000000E+01 0.  1.
       1023    2    1    2    0    0  0.00000000000E+00  0.00000000000E+00  0.30106978915E+01  0.20229305705E+02  0.20004012285E+02 0.  0.
        -11    1    3    3    0    0  0.62809072564E+01 -0.77815482439E+01  0.17020585346E+01  0.10143928852E+02  0.51100000000E-03 0. -1.
         11    1    3    3    0    0 -0.62809072564E+01  0.77815482439E+01  0.13086393569E+01  0.10085376853E+02  0.51100000000E-03 0.  1.
<mgrwt>
<rscale>  0 0.20004012E+02</rscale>
<asrwt>0</asrwt>
<pdfrwt beam="2">  1        4 0.13245083E-02 0.20004012E+02</pdfrwt>
<pdfrwt beam="1">  1       -4 0.17876926E-02 0.20004012E+02</pdfrwt>
<totfact> 0.12995074E+06</totfact>
</mgrwt>
</event>
<event>
 5    1  0.1174560E-006  0.2000125E+02  0.7818608E-02  0.1745303E+00
          4   -1    0    0  501    0  0.00000000000E+00  0.00000000000E+00  0.17545264788E+01  0.22571582055E+01  0.14200000000E+01 0.  1.
         -4   -1    0    0    0  501 -0.00000000000E+00 -0.00000000000E+00 -0.49346453923E+02  0.49366880748E+02  0.14200000000E+01 0. -1.
       1023    2    1    2    0    0  0.00000000000E+00  0.00000000000E+00 -0.47591927444E+02  0.51624038954E+02  0.20001245961E+02 0.  0.
        -11    1    3    3    0    0  0.94761797871E+01  0.31947670738E+01 -0.24025947771E+02  0.26024040550E+02  0.51100000000E-03 0. -1.
         11    1    3    3    0    0 -0.94761797871E+01 -0.31947670738E+01 -0.23565979674E+02  0.25599998403E+02  0.51100000000E-03 0.  1.
<mgrwt>
<rscale>  0 0.20001246E+02</rscale>
<asrwt>0</asrwt>
<pdfrwt beam="1">  1        4 0.31016246E-03 0.20001246E+02</pdfrwt>
<pdfrwt beam="2">  1       -4 0.76319965E-02 0.20001246E+02</pdfrwt>
<totfact> 0.11451015E+06</totfact>
</mgrwt>
</event>
<event>
 5    1  0.1154861E-006  0.2000114E+02  0.7818608E-02  0.1745305E+00
         -4   -1    0    0    0  501 -0.00000000000E+00  0.00000000000E+00  0.18425996232E+01  0.23262788680E+01  0.14200000000E+01 0.  1.
          4   -1    0    0  501    0  0.00000000000E+00 -0.00000000000E+00 -0.47484500282E+02  0.47505727729E+02  0.14200000000E+01 0. -1.
       1023    2    1    2    0    0  0.00000000000E+00  0.00000000000E+00 -0.45641900659E+02  0.49832006597E+02  0.20001144610E+02 0.  0.
        -11    1    3    3    0    0  0.86542727449E+01 -0.50112255594E+01 -0.22948668009E+02  0.25032981884E+02  0.51100000000E-03 0. -1.
         11    1    3    3    0    0 -0.86542727449E+01  0.50112255594E+01 -0.22693232650E+02  0.24799024713E+02  0.51100000000E-03 0.  1.
<mgrwt>
<rscale>  0 0.20001145E+02</rscale>
<asrwt>0</asrwt>
<pdfrwt beam="2">  1        4 0.73441459E-02 0.20001145E+02</pdfrwt>
<pdfrwt beam="1">  1       -4 0.32231588E-03 0.20001145E+02</pdfrwt>
<totfact> 0.11525957E+06</totfact>
</mgrwt>
</event>
<event>
 4    1  0.1154861E-006  0.2006949E+02  0.7818608E-02  0.1743950E+00
         -4   -1    0    0    0  501 -0.00000000000E+00  0.00000000000E+00  0.10280106180E+03  0.10281086863E+03  0.14200000000E+01 0.  1.
          4   -1    0    0  501    0  0.00000000000E+00 -0.00000000000E+00 -0.44976513614E+00  0.14895263266E+01  0.14200000000E+01 0. -1.
        -11    1    1    2    0    0 -0.98651856747E+01  0.17223472741E+01  0.47857129316E+02  0.48893692795E+02  0.51100000000E-03 0. -1.
         11    1    1    2    0    0  0.98651856747E+01 -0.17223472741E+01  0.54494167350E+02  0.55406702158E+02  0.51100000000E-03 0.  1.
<mgrwt>
<rscale>  0 0.20069491E+02</rscale>
<asrwt>0</asrwt>
<pdfrwt beam="2">  1        4 0.14993057E-03 0.20069491E+02</pdfrwt>
<pdfrwt beam="1">  1       -4 0.15896291E-01 0.20069491E+02</pdfrwt>
<totfact> 0.96137407E+05</totfact>
</mgrwt>
</event>
<event>
 5    1  0.1167401E-006  0.2000117E+02  0.7818608E-02  0.1745305E+00
         -4   -1    0    0    0  501 -0.00000000000E+00  0.00000000000E+00  0.26541336383E+02  0.26579295269E+02  0.14200000000E+01 0.  1.
          4   -1    0    0  501    0  0.00000000000E+00 -0.00000000000E+00 -0.35921578995E+01  0.38626413728E+01  0.14200000000E+01 0. -1.
       1023    2    1    2    0    0  0.00000000000E+00  0.00000000000E+00  0.22949178484E+02  0.30441936642E+02  0.20001167802E+02 0.  0.
        -11    1    3    3    0    0  0.79887972196E+01  0.60158659765E+01  0.11455723944E+02  0.15206746391E+02  0.51100000000E-03 0. -1.
         11    1    3    3    0    0 -0.79887972196E+01 -0.60158659765E+01  0.11493454540E+02  0.15235190251E+02  0.51100000000E-03 0.  1.
<mgrwt>
<rscale>  0 0.20001168E+02</rscale>
<asrwt>0</asrwt>
<pdfrwt beam="2">  1        4 0.57636602E-03 0.20001168E+02</pdfrwt>
<pdfrwt beam="1">  1       -4 0.41070088E-02 0.20001168E+02</pdfrwt>
<totfact> 0.12431247E+06</totfact>
</mgrwt>
</event>
<event>
 5    1  0.1154861E-006  0.2000237E+02  0.7818608E-02  0.1745281E+00
          4   -1    0    0  501    0  0.00000000000E+00  0.00000000000E+00  0.12894188748E+01  0.19180722183E+01  0.14200000000E+01 0. -1.
         -4   -1    0    0    0  501 -0.00000000000E+00 -0.00000000000E+00 -0.61730365813E+02  0.61746695971E+02  0.14200000000E+01 0.  1.
       1023    2    1    2    0    0  0.00000000000E+00  0.00000000000E+00 -0.60440946938E+02  0.63664768190E+02  0.20002365907E+02 0.  0.
        -11    1    3    3    0    0 -0.95932602289E+01 -0.28271489660E+01 -0.30270507885E+02  0.31879884896E+02  0.51100000000E-03 0.  1.
         11    1    3    3    0    0  0.95932602289E+01  0.28271489660E+01 -0.30170439053E+02  0.31784883294E+02  0.51100000000E-03 0. -1.
<mgrwt>
<rscale>  0 0.20002366E+02</rscale>
<asrwt>0</asrwt>
<pdfrwt beam="1">  1        4 0.24798630E-03 0.20002366E+02</pdfrwt>
<pdfrwt beam="2">  1       -4 0.95465916E-02 0.20002366E+02</pdfrwt>
<totfact> 0.10977749E+06</totfact>
</mgrwt>
</event>
<event>
 5    1  0.1154861E-006  0.2000144E+02  0.7818608E-02  0.1745300E+00
          4   -1    0    0  501    0  0.00000000000E+00  0.00000000000E+00  0.79765001676E+02  0.79777640303E+02  0.14200000000E+01 0.  1.
         -4   -1    0    0    0  501 -0.00000000000E+00 -0.00000000000E+00 -0.83491822683E+00  0.16472669624E+01  0.14200000000E+01 0. -1.
       1023    2    1    2    0    0  0.00000000000E+00  0.00000000000E+00  0.78930083449E+02  0.81424907265E+02  0.20001436197E+02 0.  0.
        -11    1    3    3    0    0 -0.79302112025E+01 -0.60921246600E+01  0.39913394612E+02  0.41147069183E+02  0.51100000000E-03 0. -1.
         11    1    3    3    0    0  0.79302112025E+01  0.60921246600E+01  0.39016688837E+02  0.40277838083E+02  0.51100000000E-03 0.  1.
<mgrwt>
<rscale>  0 0.20001436E+02</rscale>
<asrwt>0</asrwt>
<pdfrwt beam="1">  1        4 0.12334999E-01 0.20001436E+02</pdfrwt>
<pdfrwt beam="2">  1       -4 0.19190953E-03 0.20001436E+02</pdfrwt>
<totfact> 0.10363342E+06</totfact>
</mgrwt>
</event>
<event>
 5    1  0.1154861E-006  0.2000710E+02  0.7818608E-02  0.1745187E+00
          4   -1    0    0  501    0  0.00000000000E+00  0.00000000000E+00  0.27246454123E+02  0.27283432011E+02  0.14200000000E+01 0.  1.
         -4   -1    0    0    0  501 -0.00000000000E+00 -0.00000000000E+00 -0.34945008084E+01  0.37719936241E+01  0.14200000000E+01 0. -1.
       1023    2    1    2    0    0  0.00000000000E+00  0.00000000000E+00  0.23751953315E+02  0.31055425635E+02  0.20007103116E+02 0.  0.
        -11    1    3    3    0    0  0.55202432684E+01 -0.83400429167E+01  0.11559225189E+02  0.15285453504E+02  0.51100000000E-03 0.  1.
         11    1    3    3    0    0 -0.55202432684E+01  0.83400429167E+01  0.12192728125E+02  0.15769972131E+02  0.51100000000E-03 0. -1.
<mgrwt>
<rscale>  0 0.20007103E+02</rscale>
<asrwt>0</asrwt>
<pdfrwt beam="1">  1        4 0.42159522E-02 0.20007103E+02</pdfrwt>
<pdfrwt beam="2">  1       -4 0.56180557E-03 0.20007103E+02</pdfrwt>
<totfact> 0.12392037E+06</totfact>
</mgrwt>
</event>
<event>
 5    1  0.1154861E-006  0.2000078E+02  0.7818608E-02  0.1745313E+00
          4   -1    0    0  501    0  0.00000000000E+00  0.00000000000E+00  0.19092868844E+01  0.23794487612E+01  0.14200000000E+01 0.  1.
         -4   -1    0    0    0  501 -0.00000000000E+00 -0.00000000000E+00 -0.46155130224E+02  0.46176968783E+02  0.14200000000E+01 0. -1.
       1023    2    1    2    0    0  0.00000000000E+00  0.00000000000E+00 -0.44245843339E+02  0.48556417544E+02  0.20000775782E+02 0.  0.
        -11    1    3    3    0    0  0.96617499116E+01  0.25803052992E+01 -0.22076165174E+02  0.24235603063E+02  0.51100000000E-03 0.  1.
         11    1    3    3    0    0 -0.96617499116E+01 -0.25803052992E+01 -0.22169678166E+02  0.24320814481E+02  0.51100000000E-03 0. -1.
<mgrwt>
<rscale>  0 0.20000776E+02</rscale>
<asrwt>0</asrwt>
<pdfrwt beam="1">  1        4 0.33158267E-03 0.20000776E+02</pdfrwt>
<pdfrwt beam="2">  1       -4 0.71386347E-02 0.20000776E+02</pdfrwt>
<totfact> 0.11580453E+06</totfact>
</mgrwt>
</event>
<event>
 5    1  0.1154861E-006  0.2000068E+02  0.7818608E-02  0.1745315E+00
         -4   -1    0    0    0  501 -0.00000000000E+00  0.00000000000E+00  0.23270363999E+01  0.27260774762E+01  0.14200000000E+01 0.  1.
          4   -1    0    0  501    0  0.00000000000E+00 -0.00000000000E+00 -0.39169310146E+02  0.39195041234E+02  0.14200000000E+01 0. -1.
       1023    2    1    2    0    0  0.00000000000E+00  0.00000000000E+00 -0.36842273746E+02  0.41921118710E+02  0.20000676466E+02 0.  0.
        -11    1    3    3    0    0 -0.69540027048E+01 -0.71866872622E+01 -0.18445678069E+02  0.20982127325E+02  0.51100000000E-03 0. -1.
         11    1    3    3    0    0  0.69540027048E+01  0.71866872622E+01 -0.18396595677E+02  0.20938991385E+02  0.51100000000E-03 0.  1.
<mgrwt>
<rscale>  0 0.20000676E+02</rscale>
<asrwt>0</asrwt>
<pdfrwt beam="2">  1        4 0.60587220E-02 0.20000676E+02</pdfrwt>
<pdfrwt beam="1">  1       -4 0.39068041E-03 0.20000676E+02</pdfrwt>
<totfact> 0.11873306E+06</totfact>
</mgrwt>
</event>
<event>
 5    1  0.1154861E-006  0.2000037E+02  0.7818608E-02  0.1745321E+00
          4   -1    0    0  501    0  0.00000000000E+00  0.00000000000E+00  0.18513522885E+02  0.18567900517E+02  0.14200000000E+01 0.  1.
         -4   -1    0    0    0  501 -0.00000000000E+00 -0.00000000000E+00 -0.52448068929E+01  0.54336359230E+01  0.14200000000E+01 0. -1.
       1023    2    1    2    0    0  0.00000000000E+00  0.00000000000E+00  0.13268715992E+02  0.24001536441E+02  0.20000373182E+02 0.  0.
        -11    1    3    3    0    0  0.12602282800E+01  0.99203832135E+01  0.65870634689E+01  0.11974622492E+02  0.51100000000E-03 0.  1.
         11    1    3    3    0    0 -0.12602282800E+01 -0.99203832135E+01  0.66816525235E+01  0.12026913949E+02  0.51100000000E-03 0. -1.
<mgrwt>
<rscale>  0 0.20000373E+02</rscale>
<asrwt>0</asrwt>
<pdfrwt beam="1">  1        4 0.28669425E-02 0.20000373E+02</pdfrwt>
<pdfrwt beam="2">  1       -4 0.82560157E-03 0.20000373E+02</pdfrwt>
<totfact> 0.12781187E+06</totfact>
</mgrwt>
</event>
<event>
 5    1  0.1154861E-006  0.2000466E+02  0.7818608E-02  0.1745235E+00
          4   -1    0    0  501    0  0.00000000000E+00  0.00000000000E+00  0.93948262403E+02  0.93958993228E+02  0.14200000000E+01 0.  1.
         -4   -1    0    0    0  501 -0.00000000000E+00 -0.00000000000E+00 -0.57586205444E+00  0.15323240864E+01  0.14200000000E+01 0. -1.
       1023    2    1    2    0    0  0.00000000000E+00  0.00000000000E+00  0.93372400348E+02  0.95491317315E+02  0.20004662849E+02 0.  0.
        -11    1    3    3    0    0 -0.15509803251E+01  0.98812291123E+01  0.46452109781E+02  0.47516762643E+02  0.51100000000E-03 0. -1.
         11    1    3    3    0    0  0.15509803251E+01 -0.98812291123E+01  0.46920290567E+02  0.47974554671E+02  0.51100000000E-03 0.  1.
<mgrwt>
<rscale>  0 0.20004663E+02</rscale>
<asrwt>0</asrwt>
<pdfrwt beam="1">  1        4 0.14527984E-01 0.20004663E+02</pdfrwt>
<pdfrwt beam="2">  1       -4 0.16299355E-03 0.20004663E+02</pdfrwt>
<totfact> 0.99269381E+05</totfact>
</mgrwt>
</event>
<event>
 5    1  0.1154861E-006  0.2000017E+02  0.7818608E-02  0.1745325E+00
          4   -1    0    0  501    0  0.00000000000E+00  0.00000000000E+00  0.28800134067E+02  0.28835119599E+02  0.14200000000E+01 0. -1.
         -4   -1    0    0    0  501 -0.00000000000E+00 -0.00000000000E+00 -0.32883330543E+01  0.35818339263E+01  0.14200000000E+01 0.  1.
       1023    2    1    2    0    0  0.00000000000E+00  0.00000000000E+00  0.25511801013E+02  0.32416953526E+02  0.20000172123E+02 0.  0.
        -11    1    3    3    0    0  0.90235244428E+01  0.43101815164E+01  0.12743045536E+02  0.16198360036E+02  0.51100000000E-03 0.  1.
         11    1    3    3    0    0 -0.90235244428E+01 -0.43101815164E+01  0.12768755477E+02  0.16218593489E+02  0.51100000000E-03 0. -1.
<mgrwt>
<rscale>  0 0.20000172E+02</rscale>
<asrwt>0</asrwt>
<pdfrwt beam="1">  1        4 0.44560581E-02 0.20000172E+02</pdfrwt>
<pdfrwt beam="2">  1       -4 0.53116557E-03 0.20000172E+02</pdfrwt>
<totfact> 0.12331008E+06</totfact>
</mgrwt>
</event>
<event>
 5    1  0.1154861E-006  0.2000295E+02  0.7818608E-02  0.1745269E+00
         -4   -1    0    0    0  501 -0.00000000000E+00  0.00000000000E+00  0.88627243155E+02  0.88638618159E+02  0.14200000000E+01 0.  1.
          4   -1    0    0  501    0  0.00000000000E+00 -0.00000000000E+00 -0.66595100266E+00  0.15684038823E+01  0.14200000000E+01 0. -1.
       1023    2    1    2    0    0  0.00000000000E+00  0.00000000000E+00  0.87961292152E+02  0.90207022042E+02  0.20002947497E+02 0.  0.
        -11    1    3    3    0    0  0.71790315071E+01  0.69620787070E+01  0.44625445732E+02  0.45732258203E+02  0.51100000000E-03 0.  1.
         11    1    3    3    0    0 -0.71790315071E+01 -0.69620787070E+01  0.43335846420E+02  0.44474763839E+02  0.51100000000E-03 0. -1.
<mgrwt>
<rscale>  0 0.20002947E+02</rscale>
<asrwt>0</asrwt>
<pdfrwt beam="2">  1        4 0.17274846E-03 0.20002947E+02</pdfrwt>
<pdfrwt beam="1">  1       -4 0.13705254E-01 0.20002947E+02</pdfrwt>
<totfact> 0.10086434E+06</totfact>
</mgrwt>
</event>
<event>
 4    1  0.1154861E-006  0.2003700E+02  0.7818608E-02  0.1744593E+00
         -4   -1    0    0    0  501 -0.00000000000E+00  0.00000000000E+00  0.45009536478E+01  0.47196380942E+01  0.14200000000E+01 0.  1.
          4   -1    0    0  501    0  0.00000000000E+00 -0.00000000000E+00 -0.21528271614E+02  0.21575052229E+02  0.14200000000E+01 0. -1.
        -11    1    1    2    0    0  0.88880846304E+01  0.46151025198E+01 -0.88684083501E+01  0.13377065694E+02  0.51100000000E-03 0.  1.
         11    1    1    2    0    0 -0.88880846304E+01 -0.46151025198E+01 -0.81589096157E+01  0.12917624629E+02  0.51100000000E-03 0. -1.
<mgrwt>
<rscale>  0 0.20036995E+02</rscale>
<asrwt>0</asrwt>
<pdfrwt beam="2">  1        4 0.33324621E-02 0.20036995E+02</pdfrwt>
<pdfrwt beam="1">  1       -4 0.71287481E-03 0.20036995E+02</pdfrwt>
<totfact> 0.12606463E+06</totfact>
</mgrwt>
</event>
<event>
 4    1  0.1154861E-006  0.2002073E+02  0.7818608E-02  0.1744916E+00
         -4   -1    0    0    0  501 -0.00000000000E+00  0.00000000000E+00  0.27268496636E+01  0.30744282538E+01  0.14200000000E+01 0.  1.
          4   -1    0    0  501    0  0.00000000000E+00 -0.00000000000E+00 -0.34183448502E+02  0.34212929595E+02  0.14200000000E+01 0. -1.
        -11    1    1    2    0    0  0.92004645270E+01 -0.39253768082E+01 -0.15006426656E+02  0.18034688016E+02  0.51100000000E-03 0.  1.
         11    1    1    2    0    0 -0.92004645270E+01  0.39253768082E+01 -0.16450172182E+02  0.19252669833E+02  0.51100000000E-03 0. -1.
<mgrwt>
<rscale>  0 0.20020725E+02</rscale>
<asrwt>0</asrwt>
<pdfrwt beam="2">  1        4 0.52879964E-02 0.20020725E+02</pdfrwt>
<pdfrwt beam="1">  1       -4 0.44851995E-03 0.20020725E+02</pdfrwt>
<totfact> 0.12065439E+06</totfact>
</mgrwt>
</event>
<event>
 5    1  0.1154861E-006  0.2000103E+02  0.7818608E-02  0.1745308E+00
         -4   -1    0    0    0  501 -0.00000000000E+00  0.00000000000E+00  0.29037790926E+00  0.14493858459E+01  0.14200000000E+01 0.  1.
          4   -1    0    0  501    0  0.00000000000E+00 -0.00000000000E+00 -0.11380360381E+03  0.11381246259E+03  0.14200000000E+01 0. -1.
       1023    2    1    2    0    0  0.00000000000E+00  0.00000000000E+00 -0.11351322590E+03  0.11526184843E+03  0.20001031218E+02 0.  0.
        -11    1    3    3    0    0  0.18575341605E+01  0.98263973519E+01 -0.56512518428E+02  0.57390532820E+02  0.51100000000E-03 0. -1.
         11    1    3    3    0    0 -0.18575341605E+01 -0.98263973519E+01 -0.57000707472E+02  0.57871315612E+02  0.51100000000E-03 0.  1.
<mgrwt>
<rscale>  0 0.20001031E+02</rscale>
<asrwt>0</asrwt>
<pdfrwt beam="2">  1        4 0.17598071E-01 0.20001031E+02</pdfrwt>
<pdfrwt beam="1">  1       -4 0.13450952E-03 0.20001031E+02</pdfrwt>
<totfact> 0.93858510E+05</totfact>
</mgrwt>
</event>
<event>
 4    1  0.1154861E-006  0.2001260E+02  0.7818608E-02  0.1745078E+00
          4   -1    0    0  501    0  0.00000000000E+00  0.00000000000E+00  0.44093674488E+01  0.46323774995E+01  0.14200000000E+01 0. -1.
         -4   -1    0    0    0  501 -0.00000000000E+00 -0.00000000000E+00 -0.21900929123E+02  0.21946915419E+02  0.14200000000E+01 0.  1.
        -11    1    1    2    0    0  0.71654984814E+01 -0.69803243790E+01 -0.90620967425E+01  0.13497810732E+02  0.51100000000E-03 0. -1.
         11    1    1    2    0    0 -0.71654984814E+01  0.69803243790E+01 -0.84294649313E+01  0.13081482187E+02  0.51100000000E-03 0.  1.
<mgrwt>
<rscale>  0 0.20012598E+02</rscale>
<asrwt>0</asrwt>
<pdfrwt beam="1">  1        4 0.69905626E-03 0.20012598E+02</pdfrwt>
<pdfrwt beam="2">  1       -4 0.33900657E-02 0.20012598E+02</pdfrwt>
<totfact> 0.12622220E+06</totfact>
</mgrwt>
</event>
<event>
 5    1  0.1174725E-006  0.2000101E+02  0.7818608E-02  0.1745308E+00
         -4   -1    0    0    0  501 -0.00000000000E+00  0.00000000000E+00  0.22177262610E+02  0.22222677086E+02  0.14200000000E+01 0. -1.
          4   -1    0    0  501    0  0.00000000000E+00 -0.00000000000E+00 -0.43463929262E+01  0.45724754203E+01  0.14200000000E+01 0.  1.
       1023    2    1    2    0    0  0.00000000000E+00  0.00000000000E+00  0.17830869683E+02  0.26795152506E+02  0.20001007078E+02 0.  0.
        -11    1    3    3    0    0 -0.70259511249E+01 -0.71159928115E+01  0.87902768452E+01  0.13314289699E+02  0.51100000000E-03 0. -1.
         11    1    3    3    0    0  0.70259511249E+01  0.71159928115E+01  0.90405928382E+01  0.13480862807E+02  0.51100000000E-03 0.  1.
<mgrwt>
<rscale>  0 0.20001007E+02</rscale>
<asrwt>0</asrwt>
<pdfrwt beam="2">  1        4 0.68956022E-03 0.20001007E+02</pdfrwt>
<pdfrwt beam="1">  1       -4 0.34327709E-02 0.20001007E+02</pdfrwt>
<totfact> 0.12625341E+06</totfact>
</mgrwt>
</event>
<event>
 5    1  0.1154861E-006  0.2000058E+02  0.7818608E-02  0.1745317E+00
          4   -1    0    0  501    0  0.00000000000E+00  0.00000000000E+00  0.51789347018E+02  0.51808810685E+02  0.14200000000E+01 0.  1.
         -4   -1    0    0    0  501 -0.00000000000E+00 -0.00000000000E+00 -0.16473644420E+01  0.21749045047E+01  0.14200000000E+01 0. -1.
       1023    2    1    2    0    0  0.00000000000E+00  0.00000000000E+00  0.50141982576E+02  0.53983715189E+02  0.20000577216E+02 0.  0.
        -11    1    3    3    0    0 -0.21604735016E+00  0.99978501980E+01  0.24947687594E+02  0.26877328766E+02  0.51100000000E-03 0. -1.
         11    1    3    3    0    0  0.21604735016E+00 -0.99978501980E+01  0.25194294982E+02  0.27106386424E+02  0.51100000000E-03 0.  1.
<mgrwt>
<rscale>  0 0.20000577E+02</rscale>
<asrwt>0</asrwt>
<pdfrwt beam="1">  1        4 0.80096694E-02 0.20000577E+02</pdfrwt>
<pdfrwt beam="2">  1       -4 0.29551788E-03 0.20000577E+02</pdfrwt>
<totfact> 0.11355197E+06</totfact>
</mgrwt>
</event>
<event>
 5    1  0.1154861E-006  0.2000006E+02  0.7818608E-02  0.1745327E+00
          4   -1    0    0  501    0  0.00000000000E+00  0.00000000000E+00  0.37533381458E+01  0.40129723693E+01  0.14200000000E+01 0. -1.
         -4   -1    0    0    0  501 -0.00000000000E+00 -0.00000000000E+00 -0.25472346497E+02  0.25511895971E+02  0.14200000000E+01 0.  1.
       1023    2    1    2    0    0  0.00000000000E+00  0.00000000000E+00 -0.21719008351E+02  0.29524868341E+02  0.20000063169E+02 0.  0.
        -11    1    3    3    0    0  0.97995851422E+01 -0.19921741880E+01 -0.10856379490E+02  0.14760135597E+02  0.51100000000E-03 0. -1.
         11    1    3    3    0    0 -0.97995851422E+01  0.19921741880E+01 -0.10862628861E+02  0.14764732744E+02  0.51100000000E-03 0.  1.
<mgrwt>
<rscale>  0 0.20000063E+02</rscale>
<asrwt>0</asrwt>
<pdfrwt beam="1">  1        4 0.60045078E-03 0.20000063E+02</pdfrwt>
<pdfrwt beam="2">  1       -4 0.39418366E-02 0.20000063E+02</pdfrwt>
<totfact> 0.12480551E+06</totfact>
</mgrwt>
</event>
<event>
 5    1  0.1154861E-006  0.2000511E+02  0.7818608E-02  0.1745227E+00
          4   -1    0    0  501    0  0.00000000000E+00  0.00000000000E+00  0.15403473693E+01  0.20950107441E+01  0.14200000000E+01 0.  1.
         -4   -1    0    0    0  501 -0.00000000000E+00 -0.00000000000E+00 -0.54477995099E+02  0.54496498511E+02  0.14200000000E+01 0. -1.
       1023    2    1    2    0    0  0.00000000000E+00  0.00000000000E+00 -0.52937647730E+02  0.56591509255E+02  0.20005108664E+02 0.  0.
        -11    1    3    3    0    0 -0.23464494236E+01  0.97231629956E+01 -0.26261536913E+02  0.28101851271E+02  0.51100000000E-03 0. -1.
         11    1    3    3    0    0  0.23464494236E+01 -0.97231629956E+01 -0.26676110816E+02  0.28489657985E+02  0.51100000000E-03 0.  1.
<mgrwt>
<rscale>  0 0.20005109E+02</rscale>
<asrwt>0</asrwt>
<pdfrwt beam="1">  1        4 0.28106631E-03 0.20005109E+02</pdfrwt>
<pdfrwt beam="2">  1       -4 0.84253185E-02 0.20005109E+02</pdfrwt>
<totfact> 0.11245766E+06</totfact>
</mgrwt>
</event>
<event>
 4    1  0.1154861E-006  0.2002432E+02  0.7818608E-02  0.1744845E+00
         -4   -1    0    0    0  501 -0.00000000000E+00  0.00000000000E+00  0.10672853543E+01  0.17763721534E+01  0.14200000000E+01 0. -1.
          4   -1    0    0  501    0  0.00000000000E+00 -0.00000000000E+00 -0.69785032438E+02  0.69799478167E+02  0.14200000000E+01 0.  1.
        -11    1    1    2    0    0  0.75984207165E+01  0.65125233719E+01 -0.33260419809E+02  0.34733333905E+02  0.51100000000E-03 0. -1.
         11    1    1    2    0    0 -0.75984207165E+01 -0.65125233719E+01 -0.35457327275E+02  0.36842516415E+02  0.51100000000E-03 0.  1.
<mgrwt>
<rscale>  0 0.20024325E+02</rscale>
<asrwt>0</asrwt>
<pdfrwt beam="2">  1        4 0.10791813E-01 0.20024325E+02</pdfrwt>
<pdfrwt beam="1">  1       -4 0.21985415E-03 0.20024325E+02</pdfrwt>
<totfact> 0.10669466E+06</totfact>
</mgrwt>
</event>
<event>
 5    1  0.1194463E-006  0.2000073E+02  0.7818608E-02  0.1745314E+00
          4   -1    0    0  501    0  0.00000000000E+00  0.00000000000E+00  0.27840420369E+02  0.27876610381E+02  0.14200000000E+01 0. -1.
         -4   -1    0    0    0  501 -0.00000000000E+00 -0.00000000000E+00 -0.34116894415E+01  0.36954059108E+01  0.14200000000E+01 0.  1.
       1023    2    1    2    0    0  0.00000000000E+00  0.00000000000E+00  0.24428730927E+02  0.31572016291E+02  0.20000732936E+02 0.  0.
        -11    1    3    3    0    0 -0.79013973441E+00 -0.99688003897E+01  0.12336915976E+02  0.15880831152E+02  0.51100000000E-03 0.  1.
         11    1    3    3    0    0  0.79013973441E+00  0.99688003897E+01  0.12091814951E+02  0.15691185139E+02  0.51100000000E-03 0. -1.
<mgrwt>
<rscale>  0 0.20000733E+02</rscale>
<asrwt>0</asrwt>
<pdfrwt beam="1">  1        4 0.43077500E-02 0.20000733E+02</pdfrwt>
<pdfrwt beam="2">  1       -4 0.54948346E-03 0.20000733E+02</pdfrwt>
<totfact> 0.12373459E+06</totfact>
</mgrwt>
</event>
<event>
 5    1  0.1154861E-006  0.2000059E+02  0.7818608E-02  0.1745316E+00
          4   -1    0    0  501    0  0.00000000000E+00  0.00000000000E+00  0.22643629166E+01  0.26727774726E+01  0.14200000000E+01 0. -1.
         -4   -1    0    0    0  501 -0.00000000000E+00 -0.00000000000E+00 -0.40089647782E+02  0.40114788536E+02  0.14200000000E+01 0.  1.
       1023    2    1    2    0    0  0.00000000000E+00  0.00000000000E+00 -0.37825284866E+02  0.42787566009E+02  0.20000590736E+02 0.  0.
        -11    1    3    3    0    0 -0.85228630271E+01 -0.52312738047E+01 -0.18959871902E+02  0.21435535044E+02  0.51100000000E-03 0.  1.
         11    1    3    3    0    0  0.85228630271E+01  0.52312738047E+01 -0.18865412964E+02  0.21352030965E+02  0.51100000000E-03 0. -1.
<mgrwt>
<rscale>  0 0.20000591E+02</rscale>
<asrwt>0</asrwt>
<pdfrwt beam="1">  1        4 0.38171396E-03 0.20000591E+02</pdfrwt>
<pdfrwt beam="2">  1       -4 0.62009880E-02 0.20000591E+02</pdfrwt>
<totfact> 0.11834062E+06</totfact>
</mgrwt>
</event>
<event>
 5    1  0.1154861E-006  0.2000530E+02  0.7818608E-02  0.1745223E+00
         -4   -1    0    0    0  501 -0.00000000000E+00  0.00000000000E+00  0.15625880868E+01  0.21114169482E+01  0.14200000000E+01 0.  1.
          4   -1    0    0  501    0  0.00000000000E+00 -0.00000000000E+00 -0.53905790188E+02  0.53924489945E+02  0.14200000000E+01 0. -1.
       1023    2    1    2    0    0  0.00000000000E+00  0.00000000000E+00 -0.52343202101E+02  0.56035906893E+02  0.20005300675E+02 0.  0.
        -11    1    3    3    0    0 -0.99545574063E+01 -0.96683630782E+00 -0.25728468517E+02  0.27604022861E+02  0.51100000000E-03 0. -1.
         11    1    3    3    0    0  0.99545574063E+01  0.96683630782E+00 -0.26614733584E+02  0.28431884032E+02  0.51100000000E-03 0.  1.
<mgrwt>
<rscale>  0 0.20005301E+02</rscale>
<asrwt>0</asrwt>
<pdfrwt beam="2">  1        4 0.83368533E-02 0.20005301E+02</pdfrwt>
<pdfrwt beam="1">  1       -4 0.28405426E-03 0.20005301E+02</pdfrwt>
<totfact> 0.11267550E+06</totfact>
</mgrwt>
</event>
<event>
 5    1  0.1154861E-006  0.2000035E+02  0.7818608E-02  0.1745321E+00
         -4   -1    0    0    0  501 -0.00000000000E+00  0.00000000000E+00  0.70121312380E+02  0.70135688846E+02  0.14200000000E+01 0. -1.
          4   -1    0    0  501    0  0.00000000000E+00 -0.00000000000E+00 -0.10544758934E+01  0.17687055746E+01  0.14200000000E+01 0.  1.
       1023    2    1    2    0    0  0.00000000000E+00  0.00000000000E+00  0.69066836486E+02  0.71904394420E+02  0.20000350865E+02 0.  0.
        -11    1    3    3    0    0  0.92468007933E+01 -0.38076310284E+01  0.34367515868E+02  0.35792841829E+02  0.51100000000E-03 0. -1.
         11    1    3    3    0    0 -0.92468007933E+01  0.38076310284E+01  0.34699320618E+02  0.36111552591E+02  0.51100000000E-03 0.  1.
<mgrwt>
<rscale>  0 0.20000351E+02</rscale>
<asrwt>0</asrwt>
<pdfrwt beam="2">  1        4 0.21827370E-03 0.20000351E+02</pdfrwt>
<pdfrwt beam="1">  1       -4 0.10843940E-01 0.20000351E+02</pdfrwt>
<totfact> 0.10683703E+06</totfact>
</mgrwt>
</event>
<event>
 5    1  0.1154861E-006  0.2000072E+02  0.7818608E-02  0.1745314E+00
          4   -1    0    0  501    0  0.00000000000E+00  0.00000000000E+00  0.50834560067E+02  0.50854389164E+02  0.14200000000E+01 0.  1.
         -4   -1    0    0    0  501 -0.00000000000E+00 -0.00000000000E+00 -0.16881393304E+01  0.22059497725E+01  0.14200000000E+01 0. -1.
       1023    2    1    2    0    0  0.00000000000E+00  0.00000000000E+00  0.49146420737E+02  0.53060338937E+02  0.20000722407E+02 0.  0.
        -11    1    3    3    0    0  0.52259512658E+01  0.85262313240E+01  0.24589285752E+02  0.26545059075E+02  0.51100000000E-03 0.  1.
         11    1    3    3    0    0 -0.52259512658E+01 -0.85262313240E+01  0.24557134985E+02  0.26515279862E+02  0.51100000000E-03 0. -1.
<mgrwt>
<rscale>  0 0.20000722E+02</rscale>
<asrwt>0</asrwt>
<pdfrwt beam="1">  1        4 0.78620580E-02 0.20000722E+02</pdfrwt>
<pdfrwt beam="2">  1       -4 0.30107065E-03 0.20000722E+02</pdfrwt>
<totfact> 0.11392571E+06</totfact>
</mgrwt>
</event>
<event>
 5    1  0.1154861E-006  0.2000041E+02  0.7818608E-02  0.1745320E+00
          4   -1    0    0  501    0  0.00000000000E+00  0.00000000000E+00  0.25470163588E+02  0.25509716447E+02  0.14200000000E+01 0.  1.
         -4   -1    0    0    0  501 -0.00000000000E+00 -0.00000000000E+00 -0.37538212954E+01  0.40134242634E+01  0.14200000000E+01 0. -1.
       1023    2    1    2    0    0  0.00000000000E+00  0.00000000000E+00  0.21716342293E+02  0.29523140711E+02  0.20000407867E+02 0.  0.
        -11    1    3    3    0    0  0.51964843615E+00 -0.99865633567E+01  0.10782957118E+02  0.14706245158E+02  0.51100000000E-03 0.  1.
         11    1    3    3    0    0 -0.51964843615E+00  0.99865633567E+01  0.10933385175E+02  0.14816895553E+02  0.51100000000E-03 0. -1.
<mgrwt>
<rscale>  0 0.20000408E+02</rscale>
<asrwt>0</asrwt>
<pdfrwt beam="1">  1        4 0.39414987E-02 0.20000408E+02</pdfrwt>
<pdfrwt beam="2">  1       -4 0.60052296E-03 0.20000408E+02</pdfrwt>
<totfact> 0.12480205E+06</totfact>
</mgrwt>
</event>
<event>
 5    1  0.1158320E-006  0.2000139E+02  0.7818608E-02  0.1745300E+00
         -4   -1    0    0    0  501 -0.00000000000E+00  0.00000000000E+00  0.16885566570E+02  0.16945169175E+02  0.14200000000E+01 0. -1.
          4   -1    0    0  501    0  0.00000000000E+00 -0.00000000000E+00 -0.57667244862E+01  0.59389823455E+01  0.14200000000E+01 0.  1.
       1023    2    1    2    0    0  0.00000000000E+00  0.00000000000E+00  0.11118842084E+02  0.22884151521E+02  0.20001393490E+02 0.  0.
        -11    1    3    3    0    0 -0.77484140239E+01 -0.63223916170E+01  0.56259329982E+01  0.11474392272E+02  0.51100000000E-03 0. -1.
         11    1    3    3    0    0  0.77484140239E+01  0.63223916170E+01  0.54929090854E+01  0.11409759249E+02  0.51100000000E-03 0.  1.
<mgrwt>
<rscale>  0 0.20001393E+02</rscale>
<asrwt>0</asrwt>
<pdfrwt beam="2">  1        4 0.90502381E-03 0.20001393E+02</pdfrwt>
<pdfrwt beam="1">  1       -4 0.26156149E-02 0.20001393E+02</pdfrwt>
<totfact> 0.12843388E+06</totfact>
</mgrwt>
</event>
<event>
 5    1  0.1182662E-006  0.2000108E+02  0.7818608E-02  0.1745307E+00
          4   -1    0    0  501    0  0.00000000000E+00  0.00000000000E+00  0.43699991982E+01  0.45949203466E+01  0.14200000000E+01 0.  1.
         -4   -1    0    0    0  501 -0.00000000000E+00 -0.00000000000E+00 -0.22063267913E+02  0.22108916550E+02  0.14200000000E+01 0. -1.
       1023    2    1    2    0    0  0.00000000000E+00  0.00000000000E+00 -0.17693268715E+02  0.26703836897E+02  0.20001078650E+02 0.  0.
        -11    1    3    3    0    0  0.38072025502E+01 -0.92472165902E+01 -0.89408583350E+01  0.13414348808E+02  0.51100000000E-03 0.  1.
         11    1    3    3    0    0 -0.38072025502E+01  0.92472165902E+01 -0.87524103801E+01  0.13289488088E+02  0.51100000000E-03 0. -1.
<mgrwt>
<rscale>  0 0.20001079E+02</rscale>
<asrwt>0</asrwt>
<pdfrwt beam="1">  1        4 0.69312064E-03 0.20001079E+02</pdfrwt>
<pdfrwt beam="2">  1       -4 0.34151619E-02 0.20001079E+02</pdfrwt>
<totfact> 0.12630224E+06</totfact>
</mgrwt>
</event>
<event>
 5    1  0.1154861E-006  0.2000309E+02  0.7818608E-02  0.1745267E+00
         -4   -1    0    0    0  501 -0.00000000000E+00  0.00000000000E+00  0.98972006671E+01  0.99985489469E+01  0.14200000000E+01 0.  1.
          4   -1    0    0  501    0  0.00000000000E+00 -0.00000000000E+00 -0.99032584756E+01  0.10004545389E+02  0.14200000000E+01 0. -1.
       1023    2    1    2    0    0  0.00000000000E+00  0.00000000000E+00 -0.60578085363E-02  0.20003094336E+02  0.20003093418E+02 0.  0.
        -11    1    3    3    0    0 -0.96695844366E+01 -0.25551712490E+01 -0.37278396866E-01  0.10001557540E+02  0.51100000000E-03 0. -1.
         11    1    3    3    0    0  0.96695844366E+01  0.25551712490E+01  0.31220588330E-01  0.10001536796E+02  0.51100000000E-03 0.  1.
<mgrwt>
<rscale>  0 0.20003093E+02</rscale>
<asrwt>0</asrwt>
<pdfrwt beam="2">  1        4 0.15391656E-02 0.20003093E+02</pdfrwt>
<pdfrwt beam="1">  1       -4 0.15382336E-02 0.20003093E+02</pdfrwt>
<totfact> 0.13009752E+06</totfact>
</mgrwt>
</event>
<event>
 4    1  0.1154861E-006  0.2007781E+02  0.7818608E-02  0.1743785E+00
          4   -1    0    0  501    0  0.00000000000E+00  0.00000000000E+00  0.10268693304E+01  0.17523871210E+01  0.14200000000E+01 0.  1.
         -4   -1    0    0    0  501 -0.00000000000E+00 -0.00000000000E+00 -0.71788310428E+02  0.71802353124E+02  0.14200000000E+01 0. -1.
        -11    1    1    2    0    0  0.94946969833E+01  0.32602393275E+01 -0.35504143896E+02  0.36896106370E+02  0.51100000000E-03 0.  1.
         11    1    1    2    0    0 -0.94946969833E+01 -0.32602393275E+01 -0.35257297202E+02  0.36658633874E+02  0.51100000000E-03 0. -1.
<mgrwt>
<rscale>  0 0.20077805E+02</rscale>
<asrwt>0</asrwt>
<pdfrwt beam="1">  1        4 0.21486922E-03 0.20077805E+02</pdfrwt>
<pdfrwt beam="2">  1       -4 0.11101242E-01 0.20077805E+02</pdfrwt>
<totfact> 0.10544606E+06</totfact>
</mgrwt>
</event>
<event>
 4    1  0.1154861E-006  0.2010027E+02  0.7818608E-02  0.1743341E+00
         -4   -1    0    0    0  501 -0.00000000000E+00  0.00000000000E+00  0.59167993541E+01  0.60848101529E+01  0.14200000000E+01 0. -1.
          4   -1    0    0  501    0  0.00000000000E+00 -0.00000000000E+00 -0.16633257319E+02  0.16693760782E+02  0.14200000000E+01 0.  1.
        -11    1    1    2    0    0 -0.99460384473E+01 -0.14362684729E+01 -0.52034361940E+01  0.11316461302E+02  0.51100000000E-03 0. -1.
         11    1    1    2    0    0  0.99460384473E+01  0.14362684729E+01 -0.55130217713E+01  0.11462109633E+02  0.51100000000E-03 0.  1.
<mgrwt>
<rscale>  0 0.20100269E+02</rscale>
<asrwt>0</asrwt>
<pdfrwt beam="2">  1        4 0.25765407E-02 0.20100269E+02</pdfrwt>
<pdfrwt beam="1">  1       -4 0.92785485E-03 0.20100269E+02</pdfrwt>
<totfact> 0.12720834E+06</totfact>
</mgrwt>
</event>
<event>
 5    1  0.1193544E-006  0.2000139E+02  0.7818608E-02  0.1745301E+00
          4   -1    0    0  501    0  0.00000000000E+00  0.00000000000E+00  0.18210944802E+02  0.18266223216E+02  0.14200000000E+01 0. -1.
         -4   -1    0    0    0  501 -0.00000000000E+00 -0.00000000000E+00 -0.53353565884E+01  0.55210895596E+01  0.14200000000E+01 0.  1.
       1023    2    1    2    0    0  0.00000000000E+00  0.00000000000E+00  0.12875588213E+02  0.23787312776E+02  0.20001386883E+02 0.  0.
        -11    1    3    3    0    0  0.97634977435E+01 -0.21643579457E+01  0.63670788068E+01  0.11855379635E+02  0.51100000000E-03 0. -1.
         11    1    3    3    0    0 -0.97634977435E+01  0.21643579457E+01  0.65085094066E+01  0.11931933140E+02  0.51100000000E-03 0.  1.
<mgrwt>
<rscale>  0 0.20001387E+02</rscale>
<asrwt>0</asrwt>
<pdfrwt beam="1">  1        4 0.28202232E-02 0.20001387E+02</pdfrwt>
<pdfrwt beam="2">  1       -4 0.83936342E-03 0.20001387E+02</pdfrwt>
<totfact> 0.12791968E+06</totfact>
</mgrwt>
</event>
<event>
 5    1  0.1236845E-006  0.2000116E+02  0.7818608E-02  0.1745305E+00
          4   -1    0    0  501    0  0.00000000000E+00  0.00000000000E+00  0.61288242404E+01  0.62911752932E+01  0.14200000000E+01 0. -1.
         -4   -1    0    0    0  501 -0.00000000000E+00 -0.00000000000E+00 -0.15910544241E+02  0.15973785338E+02  0.14200000000E+01 0.  1.
       1023    2    1    2    0    0  0.00000000000E+00  0.00000000000E+00 -0.97817200003E+01  0.22264960632E+02  0.20001160610E+02 0.  0.
        -11    1    3    3    0    0 -0.36111620867E+01 -0.93253350706E+01 -0.49978668878E+01  0.11179491915E+02  0.51100000000E-03 0. -1.
         11    1    3    3    0    0  0.36111620867E+01  0.93253350706E+01 -0.47838531125E+01  0.11085468716E+02  0.51100000000E-03 0.  1.
<mgrwt>
<rscale>  0 0.20001161E+02</rscale>
<asrwt>0</asrwt>
<pdfrwt beam="1">  1        4 0.96024928E-03 0.20001161E+02</pdfrwt>
<pdfrwt beam="2">  1       -4 0.24651293E-02 0.20001161E+02</pdfrwt>
<totfact> 0.12879350E+06</totfact>
</mgrwt>
</event>
<event>
 5    1  0.1154861E-006  0.2000103E+02  0.7818608E-02  0.1745308E+00
         -4   -1    0    0    0  501 -0.00000000000E+00  0.00000000000E+00  0.91332865426E+02  0.91343903502E+02  0.14200000000E+01 0.  1.
          4   -1    0    0  501    0  0.00000000000E+00 -0.00000000000E+00 -0.61878652714E+00  0.15489663541E+01  0.14200000000E+01 0. -1.
       1023    2    1    2    0    0  0.00000000000E+00  0.00000000000E+00  0.90714078899E+02  0.92892869856E+02  0.20001028963E+02 0.  0.
        -11    1    3    3    0    0  0.86699938261E+01  0.49841179097E+01  0.45319494171E+02  0.46409770270E+02  0.51100000000E-03 0. -1.
         11    1    3    3    0    0 -0.86699938261E+01 -0.49841179097E+01  0.45394584728E+02  0.46483099587E+02  0.51100000000E-03 0.  1.
<mgrwt>
<rscale>  0 0.20001029E+02</rscale>
<asrwt>0</asrwt>
<pdfrwt beam="2">  1        4 0.16759933E-03 0.20001029E+02</pdfrwt>
<pdfrwt beam="1">  1       -4 0.14123609E-01 0.20001029E+02</pdfrwt>
<totfact> 0.10007438E+06</totfact>
</mgrwt>
</event>
<event>
 5    1  0.1184693E-006  0.2000143E+02  0.7818608E-02  0.1745300E+00
          4   -1    0    0  501    0  0.00000000000E+00  0.00000000000E+00  0.95401427382E+01  0.96452435669E+01  0.14200000000E+01 0. -1.
         -4   -1    0    0    0  501 -0.00000000000E+00 -0.00000000000E+00 -0.10271883681E+02  0.10369570596E+02  0.14200000000E+01 0.  1.
       1023    2    1    2    0    0  0.00000000000E+00  0.00000000000E+00 -0.73174094257E+00  0.20014814163E+02  0.20001433478E+02 0.  0.
        -11    1    3    3    0    0  0.62260065051E+01 -0.78262162431E+01 -0.40484970307E+00  0.10008832161E+02  0.51100000000E-03 0.  1.
         11    1    3    3    0    0 -0.62260065051E+01  0.78262162431E+01 -0.32689123950E+00  0.10005982002E+02  0.51100000000E-03 0. -1.
<mgrwt>
<rscale>  0 0.20001433E+02</rscale>
<asrwt>0</asrwt>
<pdfrwt beam="1">  1        4 0.14833133E-02 0.20001433E+02</pdfrwt>
<pdfrwt beam="2">  1       -4 0.15958889E-02 0.20001433E+02</pdfrwt>
<totfact> 0.13011261E+06</totfact>
</mgrwt>
</event>
<event>
 5    1  0.1154861E-006  0.2000028E+02  0.7818608E-02  0.1745323E+00
          4   -1    0    0  501    0  0.00000000000E+00  0.00000000000E+00  0.15060342314E+01  0.20699128257E+01  0.14200000000E+01 0.  1.
         -4   -1    0    0    0  501 -0.00000000000E+00 -0.00000000000E+00 -0.55356374082E+02  0.55374583985E+02  0.14200000000E+01 0. -1.
       1023    2    1    2    0    0  0.00000000000E+00  0.00000000000E+00 -0.53850339851E+02  0.57444496811E+02  0.20000277793E+02 0.  0.
        -11    1    3    3    0    0 -0.84510036927E+01 -0.53463324437E+01 -0.26906188117E+02  0.28704454240E+02  0.51100000000E-03 0.  1.
         11    1    3    3    0    0  0.84510036927E+01  0.53463324437E+01 -0.26944151734E+02  0.28740042570E+02  0.51100000000E-03 0. -1.
<mgrwt>
<rscale>  0 0.20000278E+02</rscale>
<asrwt>0</asrwt>
<pdfrwt beam="1">  1        4 0.27647366E-03 0.20000278E+02</pdfrwt>
<pdfrwt beam="2">  1       -4 0.85611400E-02 0.20000278E+02</pdfrwt>
<totfact> 0.11217655E+06</totfact>
</mgrwt>
</event>
<event>
 5    1  0.1195709E-006  0.2000145E+02  0.7818608E-02  0.1745299E+00
          4   -1    0    0  501    0  0.00000000000E+00  0.00000000000E+00  0.23466565773E+02  0.23509489769E+02  0.14200000000E+01 0. -1.
         -4   -1    0    0    0  501 -0.00000000000E+00 -0.00000000000E+00 -0.40954784913E+01  0.43346677004E+01  0.14200000000E+01 0.  1.
       1023    2    1    2    0    0  0.00000000000E+00  0.00000000000E+00  0.19371087282E+02  0.27844157469E+02  0.20001452014E+02 0.  0.
        -11    1    3    3    0    0  0.46883648997E+00  0.99893181668E+01  0.95592118339E+01  0.13834190119E+02  0.51100000000E-03 0. -1.
         11    1    3    3    0    0 -0.46883648997E+00 -0.99893181668E+01  0.98118754480E+01  0.14009967350E+02  0.51100000000E-03 0.  1.
<mgrwt>
<rscale>  0 0.20001452E+02</rscale>
<asrwt>0</asrwt>
<pdfrwt beam="1">  1        4 0.36319419E-02 0.20001452E+02</pdfrwt>
<pdfrwt beam="2">  1       -4 0.65177464E-03 0.20001452E+02</pdfrwt>
<totfact> 0.12568055E+06</totfact>
</mgrwt>
</event>
<event>
 4    1  0.1154861E-006  0.2002912E+02  0.7818608E-02  0.1744750E+00
         -4   -1    0    0    0  501 -0.00000000000E+00  0.00000000000E+00  0.94415009048E+01  0.95476876434E+01  0.14200000000E+01 0.  1.
          4   -1    0    0  501    0  0.00000000000E+00 -0.00000000000E+00 -0.10408340785E+02  0.10504758821E+02  0.14200000000E+01 0. -1.
        -11    1    1    2    0    0 -0.94833636210E+01  0.32159429353E+01 -0.36087367446E+00  0.10020314596E+02  0.51100000000E-03 0.  1.
         11    1    1    2    0    0  0.94833636210E+01 -0.32159429353E+01 -0.60596620559E+00  0.10032131869E+02  0.51100000000E-03 0. -1.
<mgrwt>
<rscale>  0 0.20029125E+02</rscale>
<asrwt>0</asrwt>
<pdfrwt beam="2">  1        4 0.16168682E-02 0.20029125E+02</pdfrwt>
<pdfrwt beam="1">  1       -4 0.14681236E-02 0.20029125E+02</pdfrwt>
<totfact> 0.12972321E+06</totfact>
</mgrwt>
</event>
<event>
 5    1  0.1154861E-006  0.2000192E+02  0.7818608E-02  0.1745290E+00
         -4   -1    0    0    0  501 -0.00000000000E+00  0.00000000000E+00  0.28553018162E+01  0.31889102310E+01  0.14200000000E+01 0. -1.
          4   -1    0    0  501    0  0.00000000000E+00 -0.00000000000E+00 -0.32746012245E+02  0.32776786266E+02  0.14200000000E+01 0.  1.
       1023    2    1    2    0    0  0.00000000000E+00  0.00000000000E+00 -0.29890710429E+02  0.35965696497E+02  0.20001918773E+02 0.  0.
        -11    1    3    3    0    0  0.25669934802E+01  0.96651733509E+01 -0.15159300040E+02  0.18160655533E+02  0.51100000000E-03 0.  1.
         11    1    3    3    0    0 -0.25669934802E+01 -0.96651733509E+01 -0.14731410389E+02  0.17805040964E+02  0.51100000000E-03 0. -1.
<mgrwt>
<rscale>  0 0.20001919E+02</rscale>
<asrwt>0</asrwt>
<pdfrwt beam="2">  1        4 0.50658772E-02 0.20001919E+02</pdfrwt>
<pdfrwt beam="1">  1       -4 0.46730665E-03 0.20001919E+02</pdfrwt>
<totfact> 0.12152317E+06</totfact>
</mgrwt>
</event>
<event>
 5    1  0.1154861E-006  0.2000079E+02  0.7818608E-02  0.1745312E+00
          4   -1    0    0  501    0  0.00000000000E+00  0.00000000000E+00  0.20733487062E+02  0.20782056822E+02  0.14200000000E+01 0. -1.
         -4   -1    0    0    0  501 -0.00000000000E+00 -0.00000000000E+00 -0.46634609367E+01  0.48748608091E+01  0.14200000000E+01 0.  1.
       1023    2    1    2    0    0  0.00000000000E+00  0.00000000000E+00  0.16070026125E+02  0.25656917631E+02  0.20000792051E+02 0.  0.
        -11    1    3    3    0    0  0.82366973614E+01 -0.56707360680E+01  0.79239980877E+01  0.12758925383E+02  0.51100000000E-03 0. -1.
         11    1    3    3    0    0 -0.82366973614E+01  0.56707360680E+01  0.81460280372E+01  0.12897992248E+02  0.51100000000E-03 0.  1.
<mgrwt>
<rscale>  0 0.20000792E+02</rscale>
<asrwt>0</asrwt>
<pdfrwt beam="1">  1        4 0.32097649E-02 0.20000792E+02</pdfrwt>
<pdfrwt beam="2">  1       -4 0.73745319E-03 0.20000792E+02</pdfrwt>
<totfact> 0.12688075E+06</totfact>
</mgrwt>
</event>
<event>
 5    1  0.1154861E-006  0.2000290E+02  0.7818608E-02  0.1745270E+00
          4   -1    0    0  501    0  0.00000000000E+00  0.00000000000E+00  0.32651223591E+01  0.35605370409E+01  0.14200000000E+01 0.  1.
         -4   -1    0    0    0  501 -0.00000000000E+00 -0.00000000000E+00 -0.28996167317E+02  0.29030916608E+02  0.14200000000E+01 0. -1.
       1023    2    1    2    0    0  0.00000000000E+00  0.00000000000E+00 -0.25731044958E+02  0.32591453649E+02  0.20002904197E+02 0.  0.
        -11    1    3    3    0    0  0.29766904242E+01 -0.95471726467E+01 -0.13095093482E+02  0.16476973781E+02  0.51100000000E-03 0. -1.
         11    1    3    3    0    0 -0.29766904242E+01  0.95471726467E+01 -0.12635951476E+02  0.16114479867E+02  0.51100000000E-03 0.  1.
<mgrwt>
<rscale>  0 0.20002904E+02</rscale>
<asrwt>0</asrwt>
<pdfrwt beam="1">  1        4 0.52772377E-03 0.20002904E+02</pdfrwt>
<pdfrwt beam="2">  1       -4 0.44863459E-02 0.20002904E+02</pdfrwt>
<totfact> 0.12318734E+06</totfact>
</mgrwt>
</event>
<event>
 5    1  0.1154861E-006  0.2000527E+02  0.7818608E-02  0.1745223E+00
          4   -1    0    0  501    0  0.00000000000E+00  0.00000000000E+00  0.73253670949E+01  0.74617292282E+01  0.14200000000E+01 0. -1.
         -4   -1    0    0    0  501 -0.00000000000E+00 -0.00000000000E+00 -0.13358095955E+02  0.13433358759E+02  0.14200000000E+01 0.  1.
       1023    2    1    2    0    0  0.00000000000E+00  0.00000000000E+00 -0.60327288605E+01  0.20895087987E+02  0.20005271418E+02 0.  0.
        -11    1    3    3    0    0 -0.99839733312E+01  0.60135919725E+00 -0.29050183491E+01  0.10415396691E+02  0.51100000000E-03 0.  1.
         11    1    3    3    0    0  0.99839733312E+01 -0.60135919725E+00 -0.31277105114E+01  0.10479691296E+02  0.51100000000E-03 0. -1.
<mgrwt>
<rscale>  0 0.20005271E+02</rscale>
<asrwt>0</asrwt>
<pdfrwt beam="1">  1        4 0.11432584E-02 0.20005271E+02</pdfrwt>
<pdfrwt beam="2">  1       -4 0.20713705E-02 0.20005271E+02</pdfrwt>
<totfact> 0.12953981E+06</totfact>
</mgrwt>
</event>
<event>
 5    1  0.1154861E-006  0.2000067E+02  0.7818608E-02  0.1745315E+00
          4   -1    0    0  501    0  0.00000000000E+00  0.00000000000E+00  0.40350545044E+02  0.40375523345E+02  0.14200000000E+01 0.  1.
         -4   -1    0    0    0  501 -0.00000000000E+00 -0.00000000000E+00 -0.22471050045E+01  0.26581724739E+01  0.14200000000E+01 0. -1.
       1023    2    1    2    0    0  0.00000000000E+00  0.00000000000E+00  0.38103440040E+02  0.43033695819E+02  0.20000670813E+02 0.  0.
        -11    1    3    3    0    0  0.77648279995E+01  0.63017939227E+01  0.18967080088E+02  0.21441904949E+02  0.51100000000E-03 0. -1.
         11    1    3    3    0    0 -0.77648279995E+01 -0.63017939227E+01  0.19136359951E+02  0.21591790870E+02  0.51100000000E-03 0.  1.
<mgrwt>
<rscale>  0 0.20000671E+02</rscale>
<asrwt>0</asrwt>
<pdfrwt beam="1">  1        4 0.62413185E-02 0.20000671E+02</pdfrwt>
<pdfrwt beam="2">  1       -4 0.37925042E-03 0.20000671E+02</pdfrwt>
<totfact> 0.11822844E+06</totfact>
</mgrwt>
</event>
<event>
 4    1  0.1154861E-006  0.2003235E+02  0.7818608E-02  0.1744686E+00
         -4   -1    0    0    0  501 -0.00000000000E+00  0.00000000000E+00  0.13707239272E+02  0.13780595359E+02  0.14200000000E+01 0.  1.
          4   -1    0    0  501    0  0.00000000000E+00 -0.00000000000E+00 -0.71561958937E+01  0.72957206409E+01  0.14200000000E+01 0.  1.
        -11    1    1    2    0    0 -0.26544478717E+01 -0.96518210347E+01  0.36399674882E+01  0.10651436822E+02  0.51100000000E-03 0. -1.
         11    1    1    2    0    0  0.26544478717E+01  0.96518210347E+01  0.29110758901E+01  0.10424879179E+02  0.51100000000E-03 0.  1.
<mgrwt>
<rscale>  0 0.20032347E+02</rscale>
<asrwt>0</asrwt>
<pdfrwt beam="2">  1        4 0.11173287E-02 0.20032347E+02</pdfrwt>
<pdfrwt beam="1">  1       -4 0.21251815E-02 0.20032347E+02</pdfrwt>
<totfact> 0.12907612E+06</totfact>
</mgrwt>
</event>
<event>
 5    1  0.1154861E-006  0.2001039E+02  0.7818608E-02  0.1745122E+00
         -4   -1    0    0    0  501 -0.00000000000E+00  0.00000000000E+00  0.98658618908E+02  0.98668837456E+02  0.14200000000E+01 0.  1.
          4   -1    0    0  501    0  0.00000000000E+00 -0.00000000000E+00 -0.50243694530E+00  0.15062678660E+01  0.14200000000E+01 0. -1.
       1023    2    1    2    0    0  0.00000000000E+00  0.00000000000E+00  0.98156181963E+02  0.10017510532E+03  0.20010389019E+02 0.  0.
        -11    1    3    3    0    0  0.61767314915E+01  0.78672618951E+01  0.50284722456E+02  0.51269865754E+02  0.51100000000E-03 0.  1.
         11    1    3    3    0    0 -0.61767314915E+01 -0.78672618951E+01  0.47871459507E+02  0.48905239568E+02  0.51100000000E-03 0. -1.
<mgrwt>
<rscale>  0 0.20010389E+02</rscale>
<asrwt>0</asrwt>
<pdfrwt beam="2">  1        4 0.15530184E-03 0.20010389E+02</pdfrwt>
<pdfrwt beam="1">  1       -4 0.15256249E-01 0.20010389E+02</pdfrwt>
<totfact> 0.97861216E+05</totfact>
</mgrwt>
</event>
<event>
 5    1  0.1154861E-006  0.2000054E+02  0.7818608E-02  0.1745317E+00
          4   -1    0    0  501    0  0.00000000000E+00  0.00000000000E+00  0.18665512011E+02  0.18719448139E+02  0.14200000000E+01 0.  1.
         -4   -1    0    0    0  501 -0.00000000000E+00 -0.00000000000E+00 -0.52007746247E+01  0.53911461394E+01  0.14200000000E+01 0. -1.
       1023    2    1    2    0    0  0.00000000000E+00  0.00000000000E+00  0.13464737386E+02  0.24110594279E+02  0.20000540082E+02 0.  0.
        -11    1    3    3    0    0  0.75287071341E+01  0.65819762443E+01  0.66847821744E+01  0.12028722101E+02  0.51100000000E-03 0.  1.
         11    1    3    3    0    0 -0.75287071341E+01 -0.65819762443E+01  0.67799552120E+01  0.12081872178E+02  0.51100000000E-03 0. -1.
<mgrwt>
<rscale>  0 0.20000540E+02</rscale>
<asrwt>0</asrwt>
<pdfrwt beam="1">  1        4 0.28904101E-02 0.20000540E+02</pdfrwt>
<pdfrwt beam="2">  1       -4 0.81891207E-03 0.20000540E+02</pdfrwt>
<totfact> 0.12774823E+06</totfact>
</mgrwt>
</event>
<event>
 5    1  0.1154861E-006  0.2000359E+02  0.7818608E-02  0.1745257E+00
          4   -1    0    0  501    0  0.00000000000E+00  0.00000000000E+00  0.31025879786E+00  0.14534994055E+01  0.14200000000E+01 0. -1.
         -4   -1    0    0    0  501 -0.00000000000E+00 -0.00000000000E+00 -0.11228428067E+03  0.11229325931E+03  0.14200000000E+01 0.  1.
       1023    2    1    2    0    0  0.00000000000E+00  0.00000000000E+00 -0.11197402187E+03  0.11374675871E+03  0.20003588257E+02 0.  0.
        -11    1    3    3    0    0 -0.78972923495E+01  0.61355315644E+01 -0.55107716129E+02  0.56007788309E+02  0.51100000000E-03 0. -1.
         11    1    3    3    0    0  0.78972923495E+01 -0.61355315644E+01 -0.56866305744E+02  0.57738970404E+02  0.51100000000E-03 0.  1.
<mgrwt>
<rscale>  0 0.20003588E+02</rscale>
<asrwt>0</asrwt>
<pdfrwt beam="1">  1        4 0.13636446E-03 0.20003588E+02</pdfrwt>
<pdfrwt beam="2">  1       -4 0.17363126E-01 0.20003588E+02</pdfrwt>
<totfact> 0.94228703E+05</totfact>
</mgrwt>
</event>
<event>
 5    1  0.1168765E-006  0.2000198E+02  0.7818608E-02  0.1745289E+00
          4   -1    0    0  501    0  0.00000000000E+00  0.00000000000E+00  0.51535933692E+01  0.53456453880E+01  0.14200000000E+01 0.  1.
         -4   -1    0    0    0  501 -0.00000000000E+00 -0.00000000000E+00 -0.18833495052E+02  0.18886951471E+02  0.14200000000E+01 0. -1.
       1023    2    1    2    0    0  0.00000000000E+00  0.00000000000E+00 -0.13679901682E+02  0.24232596859E+02  0.20001975914E+02 0.  0.
        -11    1    3    3    0    0  0.99859453078E+01  0.54713634524E+00 -0.68835986657E+01  0.12140938708E+02  0.51100000000E-03 0.  1.
         11    1    3    3    0    0 -0.99859453078E+01 -0.54713634524E+00 -0.67963030168E+01  0.12091658150E+02  0.51100000000E-03 0. -1.
<mgrwt>
<rscale>  0 0.20001976E+02</rscale>
<asrwt>0</asrwt>
<pdfrwt beam="1">  1        4 0.81174579E-03 0.20001976E+02</pdfrwt>
<pdfrwt beam="2">  1       -4 0.29163460E-02 0.20001976E+02</pdfrwt>
<totfact> 0.12766089E+06</totfact>
</mgrwt>
</event>
<event>
 5    1  0.1154861E-006  0.2000020E+02  0.7818608E-02  0.1745324E+00
          4   -1    0    0  501    0  0.00000000000E+00  0.00000000000E+00  0.12013624197E+02  0.12097254496E+02  0.14200000000E+01 0.  1.
         -4   -1    0    0    0  501 -0.00000000000E+00 -0.00000000000E+00 -0.81499416664E+01  0.82727232014E+01  0.14200000000E+01 0. -1.
       1023    2    1    2    0    0  0.00000000000E+00  0.00000000000E+00  0.38636825305E+01  0.20369977698E+02  0.20000198717E+02 0.  0.
        -11    1    3    3    0    0  0.90898916682E+01  0.41681990326E+01  0.19770832599E+01  0.10193570140E+02  0.51100000000E-03 0. -1.
         11    1    3    3    0    0 -0.90898916682E+01 -0.41681990326E+01  0.18865992706E+01  0.10176407558E+02  0.51100000000E-03 0.  1.
<mgrwt>
<rscale>  0 0.20000199E+02</rscale>
<asrwt>0</asrwt>
<pdfrwt beam="1">  1        4 0.18641277E-02 0.20000199E+02</pdfrwt>
<pdfrwt beam="2">  1       -4 0.12697150E-02 0.20000199E+02</pdfrwt>
<totfact> 0.12991767E+06</totfact>
</mgrwt>
</event>
<event>
 5    1  0.1154861E-006  0.2000051E+02  0.7818608E-02  0.1745318E+00
         -4   -1    0    0    0  501 -0.00000000000E+00  0.00000000000E+00  0.20261177373E+02  0.20310876607E+02  0.14200000000E+01 0.  1.
          4   -1    0    0  501    0  0.00000000000E+00 -0.00000000000E+00 -0.47766263148E+01  0.49832277644E+01  0.14200000000E+01 0. -1.
       1023    2    1    2    0    0  0.00000000000E+00  0.00000000000E+00  0.15484551058E+02  0.25294104371E+02  0.20000509855E+02 0.  0.
        -11    1    3    3    0    0  0.23759857874E+01  0.97138497758E+01  0.77040743145E+01  0.12623666157E+02  0.51100000000E-03 0. -1.
         11    1    3    3    0    0 -0.23759857874E+01 -0.97138497758E+01  0.77804767433E+01  0.12670438214E+02  0.51100000000E-03 0.  1.
<mgrwt>
<rscale>  0 0.20000510E+02</rscale>
<asrwt>0</asrwt>
<pdfrwt beam="2">  1        4 0.75458103E-03 0.20000510E+02</pdfrwt>
<pdfrwt beam="1">  1       -4 0.31368196E-02 0.20000510E+02</pdfrwt>
<totfact> 0.12708555E+06</totfact>
</mgrwt>
</event>
<event>
 5    1  0.1211146E-006  0.2000122E+02  0.7818608E-02  0.1745304E+00
          4   -1    0    0  501    0  0.00000000000E+00  0.00000000000E+00  0.21673448967E+02  0.21719916900E+02  0.14200000000E+01 0.  1.
         -4   -1    0    0    0  501 -0.00000000000E+00 -0.00000000000E+00 -0.44524998119E+01  0.46734521047E+01  0.14200000000E+01 0. -1.
       1023    2    1    2    0    0  0.00000000000E+00  0.00000000000E+00  0.17220949156E+02  0.26393369005E+02  0.20001220903E+02 0.  0.
        -11    1    3    3    0    0 -0.35677923367E+01 -0.93422321757E+01  0.85102818071E+01  0.13131311468E+02  0.51100000000E-03 0.  1.
         11    1    3    3    0    0  0.35677923367E+01  0.93422321757E+01  0.87106673484E+01  0.13262057536E+02  0.51100000000E-03 0. -1.
<mgrwt>
<rscale>  0 0.20001221E+02</rscale>
<asrwt>0</asrwt>
<pdfrwt beam="1">  1        4 0.33549476E-02 0.20001221E+02</pdfrwt>
<pdfrwt beam="2">  1       -4 0.70557075E-03 0.20001221E+02</pdfrwt>
<totfact> 0.12647002E+06</totfact>
</mgrwt>
</event>
<event>
 5    1  0.1178634E-006  0.2000079E+02  0.7818608E-02  0.1745312E+00
          4   -1    0    0  501    0  0.00000000000E+00  0.00000000000E+00  0.11141843950E+02  0.11231967174E+02  0.14200000000E+01 0.  1.
         -4   -1    0    0    0  501 -0.00000000000E+00 -0.00000000000E+00 -0.87924149484E+01  0.89063438416E+01  0.14200000000E+01 0. -1.
       1023    2    1    2    0    0  0.00000000000E+00  0.00000000000E+00  0.23494290012E+01  0.20138311016E+02  0.20000793832E+02 0.  0.
        -11    1    3    3    0    0 -0.72324239081E+01 -0.69063599707E+01  0.12216676199E+01  0.10074633277E+02  0.51100000000E-03 0.  1.
         11    1    3    3    0    0  0.72324239081E+01  0.69063599707E+01  0.11277613813E+01  0.10063677739E+02  0.51100000000E-03 0. -1.
<mgrwt>
<rscale>  0 0.20000794E+02</rscale>
<asrwt>0</asrwt>
<pdfrwt beam="1">  1        4 0.17298262E-02 0.20000794E+02</pdfrwt>
<pdfrwt beam="2">  1       -4 0.13683755E-02 0.20000794E+02</pdfrwt>
<totfact> 0.13004772E+06</totfact>
</mgrwt>
</event>
<event>
 4    1  0.1154861E-006  0.2001353E+02  0.7818608E-02  0.1745059E+00
          4   -1    0    0  501    0  0.00000000000E+00  0.00000000000E+00  0.55492454413E+01  0.57280472211E+01  0.14200000000E+01 0. -1.
         -4   -1    0    0    0  501 -0.00000000000E+00 -0.00000000000E+00 -0.17550821565E+02  0.17608172467E+02  0.14200000000E+01 0.  1.
        -11    1    1    2    0    0  0.83686706680E+01 -0.54829788023E+01 -0.57746145839E+01  0.11551791166E+02  0.51100000000E-03 0. -1.
         11    1    1    2    0    0 -0.83686706680E+01  0.54829788023E+01 -0.62269615401E+01  0.11784428522E+02  0.51100000000E-03 0.  1.
<mgrwt>
<rscale>  0 0.20013528E+02</rscale>
<asrwt>0</asrwt>
<pdfrwt beam="1">  1        4 0.87189567E-03 0.20013528E+02</pdfrwt>
<pdfrwt beam="2">  1       -4 0.27182919E-02 0.20013528E+02</pdfrwt>
<totfact> 0.12801726E+06</totfact>
</mgrwt>
</event>
<event>
 5    1  0.1168973E-006  0.2000088E+02  0.7818608E-02  0.1745311E+00
          4   -1    0    0  501    0  0.00000000000E+00  0.00000000000E+00  0.59285929635E+01  0.60962787441E+01  0.14200000000E+01 0. -1.
         -4   -1    0    0    0  501 -0.00000000000E+00 -0.00000000000E+00 -0.16434927917E+02  0.16496158815E+02  0.14200000000E+01 0.  1.
       1023    2    1    2    0    0  0.00000000000E+00  0.00000000000E+00 -0.10506334954E+02  0.22592437559E+02  0.20000878998E+02 0.  0.
        -11    1    3    3    0    0 -0.99520085301E+01  0.98167365797E+00 -0.51952064647E+01  0.11269264724E+02  0.51100000000E-03 0.  1.
         11    1    3    3    0    0  0.99520085301E+01 -0.98167365797E+00 -0.53111284889E+01  0.11323172835E+02  0.51100000000E-03 0. -1.
<mgrwt>
<rscale>  0 0.20000879E+02</rscale>
<asrwt>0</asrwt>
<pdfrwt beam="1">  1        4 0.92970021E-03 0.20000879E+02</pdfrwt>
<pdfrwt beam="2">  1       -4 0.25460594E-02 0.20000879E+02</pdfrwt>
<totfact> 0.12860821E+06</totfact>
</mgrwt>
</event>
<event>
 5    1  0.1154861E-006  0.2000049E+02  0.7818608E-02  0.1745318E+00
         -4   -1    0    0    0  501 -0.00000000000E+00  0.00000000000E+00  0.16284257918E+01  0.21605949549E+01  0.14200000000E+01 0.  1.
          4   -1    0    0  501    0  0.00000000000E+00 -0.00000000000E+00 -0.52243502440E+02  0.52262796971E+02  0.14200000000E+01 0. -1.
       1023    2    1    2    0    0  0.00000000000E+00  0.00000000000E+00 -0.50615076649E+02  0.54423391926E+02  0.20000490109E+02 0.  0.
        -11    1    3    3    0    0  0.68336633454E+01  0.73010735215E+01 -0.25262693755E+02  0.27169989424E+02  0.51100000000E-03 0.  1.
         11    1    3    3    0    0 -0.68336633454E+01 -0.73010735215E+01 -0.25352382894E+02  0.27253402502E+02  0.51100000000E-03 0. -1.
<mgrwt>
<rscale>  0 0.20000490E+02</rscale>
<asrwt>0</asrwt>
<pdfrwt beam="2">  1        4 0.80798811E-02 0.20000490E+02</pdfrwt>
<pdfrwt beam="1">  1       -4 0.29294737E-03 0.20000490E+02</pdfrwt>
<totfact> 0.11337535E+06</totfact>
</mgrwt>
</event>
<event>
 5    1  0.1154861E-006  0.2000300E+02  0.7818608E-02  0.1745269E+00
         -4   -1    0    0    0  501 -0.00000000000E+00  0.00000000000E+00  0.47795110171E+02  0.47816199726E+02  0.14200000000E+01 0.  1.
          4   -1    0    0  501    0  0.00000000000E+00 -0.00000000000E+00 -0.18279106892E+01  0.23146614196E+01  0.14200000000E+01 0. -1.
       1023    2    1    2    0    0  0.00000000000E+00  0.00000000000E+00  0.45967199482E+02  0.50130861146E+02  0.20002995051E+02 0.  0.
        -11    1    3    3    0    0 -0.95065237911E+01 -0.31054299275E+01  0.22706072139E+02  0.24810953264E+02  0.51100000000E-03 0.  1.
         11    1    3    3    0    0  0.95065237911E+01  0.31054299275E+01  0.23261127343E+02  0.25319907882E+02  0.51100000000E-03 0. -1.
<mgrwt>
<rscale>  0 0.20002995E+02</rscale>
<asrwt>0</asrwt>
<pdfrwt beam="2">  1        4 0.32028169E-03 0.20002995E+02</pdfrwt>
<pdfrwt beam="1">  1       -4 0.73921581E-02 0.20002995E+02</pdfrwt>
<totfact> 0.11511239E+06</totfact>
</mgrwt>
</event>
<event>
 5    1  0.1181661E-006  0.2000218E+02  0.7818608E-02  0.1745285E+00
         -4   -1    0    0    0  501 -0.00000000000E+00  0.00000000000E+00  0.94854395745E+01  0.95911398656E+01  0.14200000000E+01 0.  1.
          4   -1    0    0  501    0  0.00000000000E+00 -0.00000000000E+00 -0.10331811877E+02  0.10428937466E+02  0.14200000000E+01 0. -1.
       1023    2    1    2    0    0  0.00000000000E+00  0.00000000000E+00 -0.84637230245E+00  0.20020077331E+02  0.20002178638E+02 0.  0.
        -11    1    3    3    0    0  0.10208200663E+00  0.10000197684E+02 -0.50936112022E+00  0.10013681814E+02  0.51100000000E-03 0.  1.
         11    1    3    3    0    0 -0.10208200663E+00 -0.10000197684E+02 -0.33701118223E+00  0.10006395517E+02  0.51100000000E-03 0. -1.
<mgrwt>
<rscale>  0 0.20002179E+02</rscale>
<asrwt>0</asrwt>
<pdfrwt beam="2">  1        4 0.16051115E-02 0.20002179E+02</pdfrwt>
<pdfrwt beam="1">  1       -4 0.14749004E-02 0.20002179E+02</pdfrwt>
<totfact> 0.13009959E+06</totfact>
</mgrwt>
</event>
<event>
 5    1  0.1154861E-006  0.2000031E+02  0.7818608E-02  0.1745322E+00
         -4   -1    0    0    0  501 -0.00000000000E+00  0.00000000000E+00  0.96483914141E+01  0.97523257165E+01  0.14200000000E+01 0. -1.
          4   -1    0    0  501    0  0.00000000000E+00 -0.00000000000E+00 -0.10155623179E+02  0.10254417689E+02  0.14200000000E+01 0.  1.
       1023    2    1    2    0    0  0.00000000000E+00  0.00000000000E+00 -0.50723176443E+00  0.20006743406E+02  0.20000312438E+02 0.  0.
        -11    1    3    3    0    0 -0.75758109944E+01 -0.65276492283E+01 -0.25635134331E+00  0.10003441055E+02  0.51100000000E-03 0.  1.
         11    1    3    3    0    0  0.75758109944E+01  0.65276492283E+01 -0.25088042112E+00  0.10003302351E+02  0.51100000000E-03 0. -1.
<mgrwt>
<rscale>  0 0.20000312E+02</rscale>
<asrwt>0</asrwt>
<pdfrwt beam="2">  1        4 0.15779981E-02 0.20000312E+02</pdfrwt>
<pdfrwt beam="1">  1       -4 0.14999624E-02 0.20000312E+02</pdfrwt>
<totfact> 0.13013230E+06</totfact>
</mgrwt>
</event>
<event>
 5    1  0.1154861E-006  0.2000061E+02  0.7818608E-02  0.1745316E+00
         -4   -1    0    0    0  501 -0.00000000000E+00  0.00000000000E+00  0.59211083238E+00  0.15385042209E+01  0.14200000000E+01 0.  1.
          4   -1    0    0  501    0  0.00000000000E+00 -0.00000000000E+00 -0.92921094992E+02  0.92931944424E+02  0.14200000000E+01 0. -1.
       1023    2    1    2    0    0  0.00000000000E+00  0.00000000000E+00 -0.92328984159E+02  0.94470448645E+02  0.20000608774E+02 0.  0.
        -11    1    3    3    0    0 -0.63222362429E+01  0.77481069949E+01 -0.46388763130E+02  0.47454411577E+02  0.51100000000E-03 0.  1.
         11    1    3    3    0    0  0.63222362429E+01 -0.77481069949E+01 -0.45940221029E+02  0.47016037068E+02  0.51100000000E-03 0. -1.
<mgrwt>
<rscale>  0 0.20000609E+02</rscale>
<asrwt>0</asrwt>
<pdfrwt beam="2">  1        4 0.14369181E-01 0.20000609E+02</pdfrwt>
<pdfrwt beam="1">  1       -4 0.16472811E-03 0.20000609E+02</pdfrwt>
<totfact> 0.99610095E+05</totfact>
</mgrwt>
</event>
<event>
 5    1  0.1154861E-006  0.2000111E+02  0.7818608E-02  0.1745306E+00
          4   -1    0    0  501    0  0.00000000000E+00  0.00000000000E+00  0.25722639488E+02  0.25761804716E+02  0.14200000000E+01 0.  1.
         -4   -1    0    0    0  501 -0.00000000000E+00 -0.00000000000E+00 -0.37147582507E+01  0.39769119756E+01  0.14200000000E+01 0. -1.
       1023    2    1    2    0    0  0.00000000000E+00  0.00000000000E+00  0.22007881237E+02  0.29738716691E+02  0.20001110817E+02 0.  0.
        -11    1    3    3    0    0 -0.99268966934E+01 -0.12101771267E+01  0.11089374239E+02  0.14932582761E+02  0.51100000000E-03 0.  1.
         11    1    3    3    0    0  0.99268966934E+01  0.12101771267E+01  0.10918506998E+02  0.14806133930E+02  0.51100000000E-03 0. -1.
<mgrwt>
<rscale>  0 0.20001111E+02</rscale>
<asrwt>0</asrwt>
<pdfrwt beam="1">  1        4 0.39805076E-02 0.20001111E+02</pdfrwt>
<pdfrwt beam="2">  1       -4 0.59467965E-03 0.20001111E+02</pdfrwt>
<totfact> 0.12468002E+06</totfact>
</mgrwt>
</event>
<event>
 5    1  0.1207570E-006  0.2000083E+02  0.7818608E-02  0.1745312E+00
          4   -1    0    0  501    0  0.00000000000E+00  0.00000000000E+00  0.15961788205E+02  0.16024827073E+02  0.14200000000E+01 0. -1.
         -4   -1    0    0    0  501 -0.00000000000E+00 -0.00000000000E+00 -0.61084969012E+01  0.62713742028E+01  0.14200000000E+01 0.  1.
       1023    2    1    2    0    0  0.00000000000E+00  0.00000000000E+00  0.98532913041E+01  0.22296201276E+02  0.20000831028E+02 0.  0.
        -11    1    3    3    0    0  0.95109665168E+01  0.30902516750E+01  0.49120814843E+01  0.11141664340E+02  0.51100000000E-03 0.  1.
         11    1    3    3    0    0 -0.95109665168E+01 -0.30902516750E+01  0.49412098198E+01  0.11154536935E+02  0.51100000000E-03 0. -1.
<mgrwt>
<rscale>  0 0.20000831E+02</rscale>
<asrwt>0</asrwt>
<pdfrwt beam="1">  1        4 0.24730379E-02 0.20000831E+02</pdfrwt>
<pdfrwt beam="2">  1       -4 0.95714692E-03 0.20000831E+02</pdfrwt>
<totfact> 0.12877977E+06</totfact>
</mgrwt>
</event>
<event>
 5    1  0.1154861E-006  0.2000081E+02  0.7818608E-02  0.1745312E+00
          4   -1    0    0  501    0  0.00000000000E+00  0.00000000000E+00  0.89056529020E+00  0.16761582670E+01  0.14200000000E+01 0. -1.
         -4   -1    0    0    0  501 -0.00000000000E+00 -0.00000000000E+00 -0.77132568399E+02  0.77145638294E+02  0.14200000000E+01 0.  1.
       1023    2    1    2    0    0  0.00000000000E+00  0.00000000000E+00 -0.76242003109E+02  0.78821796561E+02  0.20000814361E+02 0.  0.
        -11    1    3    3    0    0  0.40628865839E+01 -0.91375727581E+01 -0.38422687657E+02  0.39702710365E+02  0.51100000000E-03 0. -1.
         11    1    3    3    0    0 -0.40628865839E+01  0.91375727581E+01 -0.37819315452E+02  0.39119086196E+02  0.51100000000E-03 0.  1.
<mgrwt>
<rscale>  0 0.20000814E+02</rscale>
<asrwt>0</asrwt>
<pdfrwt beam="1">  1        4 0.19844571E-03 0.20000814E+02</pdfrwt>
<pdfrwt beam="2">  1       -4 0.11927981E-01 0.20000814E+02</pdfrwt>
<totfact> 0.10448990E+06</totfact>
</mgrwt>
</event>
<event>
 5    1  0.1154861E-006  0.2000049E+02  0.7818608E-02  0.1745318E+00
          4   -1    0    0  501    0  0.00000000000E+00  0.00000000000E+00  0.56516892265E+02  0.56534728365E+02  0.14200000000E+01 0.  1.
         -4   -1    0    0    0  501 -0.00000000000E+00 -0.00000000000E+00 -0.14634668499E+01  0.20391506126E+01  0.14200000000E+01 0. -1.
       1023    2    1    2    0    0  0.00000000000E+00  0.00000000000E+00  0.55053425415E+02  0.58573878978E+02  0.20000491207E+02 0.  0.
        -11    1    3    3    0    0 -0.20438859670E+00  0.99980708490E+01  0.27405378891E+02  0.29172898173E+02  0.51100000000E-03 0. -1.
         11    1    3    3    0    0  0.20438859670E+00 -0.99980708490E+01  0.27648046525E+02  0.29400980805E+02  0.51100000000E-03 0.  1.
<mgrwt>
<rscale>  0 0.20000491E+02</rscale>
<asrwt>0</asrwt>
<pdfrwt beam="1">  1        4 0.87405617E-02 0.20000491E+02</pdfrwt>
<pdfrwt beam="2">  1       -4 0.27080413E-03 0.20000491E+02</pdfrwt>
<totfact> 0.11173346E+06</totfact>
</mgrwt>
</event>
<event>
 5    1  0.1154861E-006  0.2000052E+02  0.7818608E-02  0.1745318E+00
          4   -1    0    0  501    0  0.00000000000E+00  0.00000000000E+00  0.21988124650E+01  0.26174751682E+01  0.14200000000E+01 0. -1.
         -4   -1    0    0    0  501 -0.00000000000E+00 -0.00000000000E+00 -0.41095929056E+02  0.41120454581E+02  0.14200000000E+01 0.  1.
       1023    2    1    2    0    0  0.00000000000E+00  0.00000000000E+00 -0.38897116591E+02  0.43737929749E+02  0.20000520485E+02 0.  0.
        -11    1    3    3    0    0 -0.95144383279E+00  0.99548947827E+01 -0.19460366687E+02  0.21879466340E+02  0.51100000000E-03 0. -1.
         11    1    3    3    0    0  0.95144383279E+00 -0.99548947827E+01 -0.19436749904E+02  0.21858463409E+02  0.51100000000E-03 0.  1.
<mgrwt>
<rscale>  0 0.20000520E+02</rscale>
<asrwt>0</asrwt>
<pdfrwt beam="1">  1        4 0.37237027E-03 0.20000520E+02</pdfrwt>
<pdfrwt beam="2">  1       -4 0.63565415E-02 0.20000520E+02</pdfrwt>
<totfact> 0.11791360E+06</totfact>
</mgrwt>
</event>
<event>
 5    1  0.1201219E-006  0.2000153E+02  0.7818608E-02  0.1745298E+00
         -4   -1    0    0    0  501 -0.00000000000E+00  0.00000000000E+00  0.89119058688E+01  0.90243263579E+01  0.14200000000E+01 0. -1.
          4   -1    0    0  501    0  0.00000000000E+00 -0.00000000000E+00 -0.10993953469E+02  0.11085279107E+02  0.14200000000E+01 0.  1.
       1023    2    1    2    0    0  0.00000000000E+00  0.00000000000E+00 -0.20820476002E+01  0.20109605465E+02  0.20001532685E+02 0.  0.
        -11    1    3    3    0    0 -0.24914814727E+01  0.96847404086E+01 -0.92355731607E+00  0.10042640842E+02  0.51100000000E-03 0.  1.
         11    1    3    3    0    0  0.24914814727E+01 -0.96847404086E+01 -0.11584902841E+01  0.10066964622E+02  0.51100000000E-03 0. -1.
<mgrwt>
<rscale>  0 0.20001533E+02</rscale>
<asrwt>0</asrwt>
<pdfrwt beam="2">  1        4 0.17070502E-02 0.20001533E+02</pdfrwt>
<pdfrwt beam="1">  1       -4 0.13867352E-02 0.20001533E+02</pdfrwt>
<totfact> 0.13005507E+06</totfact>
</mgrwt>
</event>
<event>
 4    1  0.1154861E-006  0.2003733E+02  0.7818608E-02  0.1744587E+00
         -4   -1    0    0    0  501 -0.00000000000E+00  0.00000000000E+00  0.30944006503E+01  0.34046608325E+01  0.14200000000E+01 0. -1.
          4   -1    0    0  501    0  0.00000000000E+00 -0.00000000000E+00 -0.30561137191E+02  0.30594109015E+02  0.14200000000E+01 0.  1.
        -11    1    1    2    0    0 -0.98402924948E+01  0.18474289813E+01 -0.13123159604E+02  0.16506412950E+02  0.51100000000E-03 0.  1.
         11    1    1    2    0    0  0.98402924948E+01 -0.18474289813E+01 -0.14343576937E+02  0.17492356898E+02  0.51100000000E-03 0. -1.
<mgrwt>
<rscale>  0 0.20037334E+02</rscale>
<asrwt>0</asrwt>
<pdfrwt beam="2">  1        4 0.47281157E-02 0.20037334E+02</pdfrwt>
<pdfrwt beam="1">  1       -4 0.50246412E-03 0.20037334E+02</pdfrwt>
<totfact> 0.12205334E+06</totfact>
</mgrwt>
</event>
<event>
 5    1  0.1154861E-006  0.2000362E+02  0.7818608E-02  0.1745256E+00
         -4   -1    0    0    0  501 -0.00000000000E+00  0.00000000000E+00  0.76844568480E+01  0.78145554607E+01  0.14200000000E+01 0.  1.
          4   -1    0    0  501    0  0.00000000000E+00 -0.00000000000E+00 -0.12738840985E+02  0.12817740427E+02  0.14200000000E+01 0. -1.
       1023    2    1    2    0    0  0.00000000000E+00  0.00000000000E+00 -0.50543841375E+01  0.20632295888E+02  0.20003620537E+02 0.  0.
        -11    1    3    3    0    0  0.94651701636E+01  0.32321450964E+01 -0.25276931804E+01  0.10316270703E+02  0.51100000000E-03 0.  1.
         11    1    3    3    0    0 -0.94651701636E+01 -0.32321450964E+01 -0.25266909571E+01  0.10316025184E+02  0.51100000000E-03 0. -1.
<mgrwt>
<rscale>  0 0.20003621E+02</rscale>
<asrwt>0</asrwt>
<pdfrwt beam="2">  1        4 0.19758985E-02 0.20003621E+02</pdfrwt>
<pdfrwt beam="1">  1       -4 0.11983009E-02 0.20003621E+02</pdfrwt>
<totfact> 0.12971705E+06</totfact>
</mgrwt>
</event>
<event>
 4    1  0.1154861E-006  0.2003500E+02  0.7818608E-02  0.1744633E+00
          4   -1    0    0  501    0  0.00000000000E+00  0.00000000000E+00  0.55270338097E+01  0.57065315853E+01  0.14200000000E+01 0. -1.
         -4   -1    0    0    0  501 -0.00000000000E+00 -0.00000000000E+00 -0.17657692212E+02  0.17714697126E+02  0.14200000000E+01 0.  1.
        -11    1    1    2    0    0  0.65462787851E+01 -0.75756173663E+01 -0.64468756222E+01  0.11908230346E+02  0.51100000000E-03 0. -1.
         11    1    1    2    0    0 -0.65462787851E+01  0.75756173663E+01 -0.56837827803E+01  0.11512998366E+02  0.51100000000E-03 0.  1.
<mgrwt>
<rscale>  0 0.20034996E+02</rscale>
<asrwt>0</asrwt>
<pdfrwt beam="1">  1        4 0.86850541E-03 0.20034996E+02</pdfrwt>
<pdfrwt beam="2">  1       -4 0.27347605E-02 0.20034996E+02</pdfrwt>
<totfact> 0.12768956E+06</totfact>
</mgrwt>
</event>
<event>
 5    1  0.1154861E-006  0.2000029E+02  0.7818608E-02  0.1745322E+00
         -4   -1    0    0    0  501 -0.00000000000E+00  0.00000000000E+00  0.25641857399E+01  0.29311172799E+01  0.14200000000E+01 0.  1.
          4   -1    0    0  501    0  0.00000000000E+00 -0.00000000000E+00 -0.36013901454E+02  0.36041885327E+02  0.14200000000E+01 0. -1.
       1023    2    1    2    0    0  0.00000000000E+00  0.00000000000E+00 -0.33449715714E+02  0.38973002607E+02  0.20000286269E+02 0.  0.
        -11    1    3    3    0    0 -0.92931012917E+01 -0.36932719893E+01 -0.16782428003E+02  0.19535912559E+02  0.51100000000E-03 0.  1.
         11    1    3    3    0    0  0.92931012917E+01  0.36932719893E+01 -0.16667287711E+02  0.19437090048E+02  0.51100000000E-03 0. -1.
<mgrwt>
<rscale>  0 0.20000286E+02</rscale>
<asrwt>0</asrwt>
<pdfrwt beam="2">  1        4 0.55709780E-02 0.20000286E+02</pdfrwt>
<pdfrwt beam="1">  1       -4 0.42486825E-03 0.20000286E+02</pdfrwt>
<totfact> 0.12010333E+06</totfact>
</mgrwt>
</event>
<event>
 5    1  0.1164360E-006  0.2000062E+02  0.7818608E-02  0.1745316E+00
          4   -1    0    0  501    0  0.00000000000E+00  0.00000000000E+00  0.37336633470E+01  0.39945765718E+01  0.14200000000E+01 0.  1.
         -4   -1    0    0    0  501 -0.00000000000E+00 -0.00000000000E+00 -0.25599466785E+02  0.25638820169E+02  0.14200000000E+01 0. -1.
       1023    2    1    2    0    0  0.00000000000E+00  0.00000000000E+00 -0.21865803438E+02  0.29633396741E+02  0.20000621051E+02 0.  0.
        -11    1    3    3    0    0 -0.98188207003E+01 -0.18965578735E+01 -0.10942110729E+02  0.14823493488E+02  0.51100000000E-03 0.  1.
         11    1    3    3    0    0  0.98188207003E+01  0.18965578735E+01 -0.10923692708E+02  0.14809903253E+02  0.51100000000E-03 0. -1.
<mgrwt>
<rscale>  0 0.20000621E+02</rscale>
<asrwt>0</asrwt>
<pdfrwt beam="1">  1        4 0.59750719E-03 0.20000621E+02</pdfrwt>
<pdfrwt beam="2">  1       -4 0.39614768E-02 0.20000621E+02</pdfrwt>
<totfact> 0.12474145E+06</totfact>
</mgrwt>
</event>
<event>
 5    1  0.1154861E-006  0.2000130E+02  0.7818608E-02  0.1745302E+00
          4   -1    0    0  501    0  0.00000000000E+00  0.00000000000E+00  0.63712164206E+02  0.63727986535E+02  0.14200000000E+01 0.  1.
         -4   -1    0    0    0  501 -0.00000000000E+00 -0.00000000000E+00 -0.12292549472E+01  0.18781554049E+01  0.14200000000E+01 0. -1.
       1023    2    1    2    0    0  0.00000000000E+00  0.00000000000E+00  0.62482909259E+02  0.65606141940E+02  0.20001297728E+02 0.  0.
        -11    1    3    3    0    0 -0.88604971386E+00 -0.99612546696E+01  0.31359663279E+02  0.32915652203E+02  0.51100000000E-03 0. -1.
         11    1    3    3    0    0  0.88604971386E+00  0.99612546696E+01  0.31123245980E+02  0.32690489737E+02  0.51100000000E-03 0.  1.
<mgrwt>
<rscale>  0 0.20001298E+02</rscale>
<asrwt>0</asrwt>
<pdfrwt beam="1">  1        4 0.98530025E-02 0.20001298E+02</pdfrwt>
<pdfrwt beam="2">  1       -4 0.24024870E-03 0.20001298E+02</pdfrwt>
<totfact> 0.10907305E+06</totfact>
</mgrwt>
</event>
<event>
 5    1  0.1154861E-006  0.2000175E+02  0.7818608E-02  0.1745293E+00
          4   -1    0    0  501    0  0.00000000000E+00  0.00000000000E+00  0.14011011801E+01  0.19948645360E+01  0.14200000000E+01 0. -1.
         -4   -1    0    0    0  501 -0.00000000000E+00 -0.00000000000E+00 -0.58299775029E+02  0.58317065842E+02  0.14200000000E+01 0.  1.
       1023    2    1    2    0    0  0.00000000000E+00  0.00000000000E+00 -0.56898673849E+02  0.60311930378E+02  0.20001746428E+02 0.  0.
        -11    1    3    3    0    0  0.98460882224E+01  0.17517064473E+01 -0.28270031815E+02  0.29986807563E+02  0.51100000000E-03 0. -1.
         11    1    3    3    0    0 -0.98460882224E+01 -0.17517064473E+01 -0.28628642034E+02  0.30325122815E+02  0.51100000000E-03 0.  1.
<mgrwt>
<rscale>  0 0.20001746E+02</rscale>
<asrwt>0</asrwt>
<pdfrwt beam="1">  1        4 0.26255824E-03 0.20001746E+02</pdfrwt>
<pdfrwt beam="2">  1       -4 0.90161988E-02 0.20001746E+02</pdfrwt>
<totfact> 0.11104944E+06</totfact>
</mgrwt>
</event>
<event>
 5    1  0.1154861E-006  0.2000450E+02  0.7818608E-02  0.1745239E+00
          4   -1    0    0  501    0  0.00000000000E+00  0.00000000000E+00  0.78290320000E+01  0.79567670606E+01  0.14200000000E+01 0.  1.
         -4   -1    0    0    0  501 -0.00000000000E+00 -0.00000000000E+00 -0.12507078475E+02  0.12587430714E+02  0.14200000000E+01 0. -1.
       1023    2    1    2    0    0  0.00000000000E+00  0.00000000000E+00 -0.46780464752E+01  0.20544197775E+02  0.20004498079E+02 0.  0.
        -11    1    3    3    0    0 -0.99977225709E+01  0.26938669053E+00 -0.24766529376E+01  0.10303438059E+02  0.51100000000E-03 0. -1.
         11    1    3    3    0    0  0.99977225709E+01 -0.26938669053E+00 -0.22013935376E+01  0.10240759716E+02  0.51100000000E-03 0.  1.
<mgrwt>
<rscale>  0 0.20004498E+02</rscale>
<asrwt>0</asrwt>
<pdfrwt beam="1">  1        4 0.12204732E-02 0.20004498E+02</pdfrwt>
<pdfrwt beam="2">  1       -4 0.19401726E-02 0.20004498E+02</pdfrwt>
<totfact> 0.12975749E+06</totfact>
</mgrwt>
</event>
<event>
 5    1  0.1154861E-006  0.2000316E+02  0.7818608E-02  0.1745265E+00
         -4   -1    0    0    0  501 -0.00000000000E+00  0.00000000000E+00  0.51439342063E+02  0.51458938115E+02  0.14200000000E+01 0. -1.
          4   -1    0    0  501    0  0.00000000000E+00 -0.00000000000E+00 -0.16627153571E+01  0.21865549064E+01  0.14200000000E+01 0.  1.
       1023    2    1    2    0    0  0.00000000000E+00  0.00000000000E+00  0.49776626706E+02  0.53645493021E+02  0.20003158632E+02 0.  0.
        -11    1    3    3    0    0 -0.46871768963E+00  0.99905508269E+01  0.24813104095E+02  0.26752961279E+02  0.51100000000E-03 0. -1.
         11    1    3    3    0    0  0.46871768963E+00 -0.99905508269E+01  0.24963522610E+02  0.26892531742E+02  0.51100000000E-03 0.  1.
<mgrwt>
<rscale>  0 0.20003159E+02</rscale>
<asrwt>0</asrwt>
<pdfrwt beam="2">  1        4 0.29760513E-03 0.20003159E+02</pdfrwt>
<pdfrwt beam="1">  1       -4 0.79555469E-02 0.20003159E+02</pdfrwt>
<totfact> 0.11365954E+06</totfact>
</mgrwt>
</event>
<event>
 5    1  0.1154861E-006  0.2000255E+02  0.7818608E-02  0.1745277E+00
         -4   -1    0    0    0  501 -0.00000000000E+00  0.00000000000E+00  0.10392595406E+03  0.10393565474E+03  0.14200000000E+01 0.  1.
          4   -1    0    0  501    0  0.00000000000E+00 -0.00000000000E+00 -0.42356938984E+00  0.14818269224E+01  0.14200000000E+01 0.  1.
       1023    2    1    2    0    0  0.00000000000E+00  0.00000000000E+00  0.10350238467E+03  0.10541748166E+03  0.20002545055E+02 0.  0.
        -11    1    3    3    0    0 -0.99020186852E+01  0.14045159857E+01  0.52030697756E+02  0.52983168539E+02  0.51100000000E-03 0. -1.
         11    1    3    3    0    0  0.99020186852E+01 -0.14045159857E+01  0.51471686911E+02  0.52434313126E+02  0.51100000000E-03 0.  1.
<mgrwt>
<rscale>  0 0.20002545E+02</rscale>
<asrwt>0</asrwt>
<pdfrwt beam="2">  1        4 0.14731509E-03 0.20002545E+02</pdfrwt>
<pdfrwt beam="1">  1       -4 0.16070766E-01 0.20002545E+02</pdfrwt>
<totfact> 0.96471856E+05</totfact>
</mgrwt>
</event>
<event>
 5    1  0.1154861E-006  0.2000058E+02  0.7818608E-02  0.1745317E+00
         -4   -1    0    0    0  501 -0.00000000000E+00  0.00000000000E+00  0.34780028193E+02  0.34809004023E+02  0.14200000000E+01 0. -1.
          4   -1    0    0  501    0  0.00000000000E+00 -0.00000000000E+00 -0.26679528700E+01  0.30223124453E+01  0.14200000000E+01 0.  1.
       1023    2    1    2    0    0  0.00000000000E+00  0.00000000000E+00  0.32112075323E+02  0.37831316468E+02  0.20000578097E+02 0.  0.
        -11    1    3    3    0    0 -0.31281136456E+01 -0.94984001993E+01  0.16118183643E+02  0.18968409147E+02  0.51100000000E-03 0.  1.
         11    1    3    3    0    0  0.31281136456E+01  0.94984001993E+01  0.15993891679E+02  0.18862907322E+02  0.51100000000E-03 0. -1.
<mgrwt>
<rscale>  0 0.20000578E+02</rscale>
<asrwt>0</asrwt>
<pdfrwt beam="2">  1        4 0.43994164E-03 0.20000578E+02</pdfrwt>
<pdfrwt beam="1">  1       -4 0.53802607E-02 0.20000578E+02</pdfrwt>
<totfact> 0.12064064E+06</totfact>
</mgrwt>
</event>
<event>
 5    1  0.1154861E-006  0.2000043E+02  0.7818608E-02  0.1745319E+00
         -4   -1    0    0    0  501 -0.00000000000E+00  0.00000000000E+00  0.34265410736E+02  0.34294821372E+02  0.14200000000E+01 0. -1.
          4   -1    0    0  501    0  0.00000000000E+00 -0.00000000000E+00 -0.27132208653E+01  0.30623467249E+01  0.14200000000E+01 0.  1.
       1023    2    1    2    0    0  0.00000000000E+00  0.00000000000E+00  0.31552189871E+02  0.37357168097E+02  0.20000433059E+02 0.  0.
        -11    1    3    3    0    0  0.40217182308E+01  0.91558662441E+01  0.15804184989E+02  0.18702309152E+02  0.51100000000E-03 0. -1.
         11    1    3    3    0    0 -0.40217182308E+01 -0.91558662441E+01  0.15748004882E+02  0.18654858945E+02  0.51100000000E-03 0.  1.
<mgrwt>
<rscale>  0 0.20000433E+02</rscale>
<asrwt>0</asrwt>
<pdfrwt beam="2">  1        4 0.44653680E-03 0.20000433E+02</pdfrwt>
<pdfrwt beam="1">  1       -4 0.53007197E-02 0.20000433E+02</pdfrwt>
<totfact> 0.12086909E+06</totfact>
</mgrwt>
</event>
<event>
 5    1  0.1162459E-006  0.2000150E+02  0.7818608E-02  0.1745298E+00
          4   -1    0    0  501    0  0.00000000000E+00  0.00000000000E+00  0.27219437014E+02  0.27256451555E+02  0.14200000000E+01 0. -1.
         -4   -1    0    0    0  501 -0.00000000000E+00 -0.00000000000E+00 -0.34961047214E+01  0.37734795909E+01  0.14200000000E+01 0.  1.
       1023    2    1    2    0    0  0.00000000000E+00  0.00000000000E+00  0.23723332293E+02  0.31029931146E+02  0.20001503239E+02 0.  0.
        -11    1    3    3    0    0 -0.80053353003E+01 -0.59934586962E+01  0.12001223830E+02  0.15621661695E+02  0.51100000000E-03 0.  1.
         11    1    3    3    0    0  0.80053353003E+01  0.59934586962E+01  0.11722108462E+02  0.15408269451E+02  0.51100000000E-03 0. -1.
<mgrwt>
<rscale>  0 0.20001503E+02</rscale>
<asrwt>0</asrwt>
<pdfrwt beam="1">  1        4 0.42117894E-02 0.20001503E+02</pdfrwt>
<pdfrwt beam="2">  1       -4 0.56204608E-03 0.20001503E+02</pdfrwt>
<totfact> 0.12400399E+06</totfact>
</mgrwt>
</event>
<event>
 5    1  0.1154861E-006  0.2000010E+02  0.7818608E-02  0.1745326E+00
          4   -1    0    0  501    0  0.00000000000E+00  0.00000000000E+00  0.28605182581E+01  0.31935817987E+01  0.14200000000E+01 0.  1.
         -4   -1    0    0    0  501 -0.00000000000E+00 -0.00000000000E+00 -0.32686476700E+02  0.32717306721E+02  0.14200000000E+01 0. -1.
       1023    2    1    2    0    0  0.00000000000E+00  0.00000000000E+00 -0.29825958442E+02  0.35910888520E+02  0.20000102932E+02 0.  0.
        -11    1    3    3    0    0  0.36068151105E+01  0.93269284862E+01 -0.14945040065E+02  0.17982072546E+02  0.51100000000E-03 0.  1.
         11    1    3    3    0    0 -0.36068151105E+01 -0.93269284862E+01 -0.14880918377E+02  0.17928815974E+02  0.51100000000E-03 0. -1.
<mgrwt>
<rscale>  0 0.20000103E+02</rscale>
<asrwt>0</asrwt>
<pdfrwt beam="1">  1        4 0.46807157E-03 0.20000103E+02</pdfrwt>
<pdfrwt beam="2">  1       -4 0.50566803E-02 0.20000103E+02</pdfrwt>
<totfact> 0.12157224E+06</totfact>
</mgrwt>
</event>
<event>
 5    1  0.1154861E-006  0.2000145E+02  0.7818608E-02  0.1745299E+00
         -4   -1    0    0    0  501 -0.00000000000E+00  0.00000000000E+00  0.34414442703E+00  0.14611075890E+01  0.14200000000E+01 0. -1.
          4   -1    0    0  501    0  0.00000000000E+00 -0.00000000000E+00 -0.10967956470E+03  0.10968875655E+03  0.14200000000E+01 0.  1.
       1023    2    1    2    0    0  0.00000000000E+00  0.00000000000E+00 -0.10933542027E+03  0.11114986413E+03  0.20001454225E+02 0.  0.
        -11    1    3    3    0    0  0.57297713849E+01  0.81964477985E+01 -0.54389528830E+02  0.55301291877E+02  0.51100000000E-03 0.  1.
         11    1    3    3    0    0 -0.57297713849E+01 -0.81964477985E+01 -0.54945891441E+02  0.55848572257E+02  0.51100000000E-03 0. -1.
<mgrwt>
<rscale>  0 0.20001454E+02</rscale>
<asrwt>0</asrwt>
<pdfrwt beam="2">  1        4 0.16960396E-01 0.20001454E+02</pdfrwt>
<pdfrwt beam="1">  1       -4 0.13957269E-03 0.20001454E+02</pdfrwt>
<totfact> 0.94932813E+05</totfact>
</mgrwt>
</event>
<event>
 4    1  0.1154861E-006  0.2009967E+02  0.7818608E-02  0.1743353E+00
          4   -1    0    0  501    0  0.00000000000E+00  0.00000000000E+00  0.27872854278E+02  0.27909002233E+02  0.14200000000E+01 0. -1.
         -4   -1    0    0    0  501 -0.00000000000E+00 -0.00000000000E+00 -0.34443658754E+01  0.37255947557E+01  0.14200000000E+01 0.  1.
        -11    1    1    2    0    0 -0.41507762173E+01  0.91403430089E+01  0.12959735691E+02  0.16392972975E+02  0.51100000000E-03 0. -1.
         11    1    1    2    0    0  0.41507762173E+01 -0.91403430089E+01  0.11468752712E+02  0.15241624013E+02  0.51100000000E-03 0.  1.
<mgrwt>
<rscale>  0 0.20099669E+02</rscale>
<asrwt>0</asrwt>
<pdfrwt beam="1">  1        4 0.43125450E-02 0.20099669E+02</pdfrwt>
<pdfrwt beam="2">  1       -4 0.55431605E-03 0.20099669E+02</pdfrwt>
<totfact> 0.12246842E+06</totfact>
</mgrwt>
</event>
<event>
 5    1  0.1216095E-006  0.2000152E+02  0.7818608E-02  0.1745298E+00
         -4   -1    0    0    0  501 -0.00000000000E+00  0.00000000000E+00  0.19308332437E+02  0.19360477822E+02  0.14200000000E+01 0. -1.
          4   -1    0    0  501    0  0.00000000000E+00 -0.00000000000E+00 -0.50221923704E+01  0.52190819313E+01  0.14200000000E+01 0.  1.
       1023    2    1    2    0    0  0.00000000000E+00  0.00000000000E+00  0.14286140067E+02  0.24579559754E+02  0.20001523934E+02 0.  0.
        -11    1    3    3    0    0 -0.27251654512E+01  0.96216756436E+01  0.70080563496E+01  0.12211307178E+02  0.51100000000E-03 0. -1.
         11    1    3    3    0    0  0.27251654512E+01 -0.96216756436E+01  0.72780837173E+01  0.12368252576E+02  0.51100000000E-03 0.  1.
<mgrwt>
<rscale>  0 0.20001524E+02</rscale>
<asrwt>0</asrwt>
<pdfrwt beam="2">  1        4 0.79180151E-03 0.20001524E+02</pdfrwt>
<pdfrwt beam="1">  1       -4 0.29896693E-02 0.20001524E+02</pdfrwt>
<totfact> 0.12747153E+06</totfact>
</mgrwt>
</event>
<event>
 5    1  0.1154861E-006  0.2000055E+02  0.7818608E-02  0.1745317E+00
         -4   -1    0    0    0  501 -0.00000000000E+00  0.00000000000E+00  0.78179856536E+01  0.79458982928E+01  0.14200000000E+01 0.  1.
          4   -1    0    0  501    0  0.00000000000E+00 -0.00000000000E+00 -0.12519557152E+02  0.12599829812E+02  0.14200000000E+01 0. -1.
       1023    2    1    2    0    0  0.00000000000E+00  0.00000000000E+00 -0.47015714984E+01  0.20545728104E+02  0.20000554212E+02 0.  0.
        -11    1    3    3    0    0  0.54802622930E+01 -0.83648857502E+01 -0.23190648803E+01  0.10265605223E+02  0.51100000000E-03 0. -1.
         11    1    3    3    0    0 -0.54802622930E+01  0.83648857502E+01 -0.23825066181E+01  0.10280122882E+02  0.51100000000E-03 0.  1.
<mgrwt>
<rscale>  0 0.20000554E+02</rscale>
<asrwt>0</asrwt>
<pdfrwt beam="2">  1        4 0.19421000E-02 0.20000554E+02</pdfrwt>
<pdfrwt beam="1">  1       -4 0.12187813E-02 0.20000554E+02</pdfrwt>
<totfact> 0.12980881E+06</totfact>
</mgrwt>
</event>
<event>
 5    1  0.1154861E-006  0.2000319E+02  0.7818608E-02  0.1745265E+00
          4   -1    0    0  501    0  0.00000000000E+00  0.00000000000E+00  0.95905077734E+00  0.17135280545E+01  0.14200000000E+01 0.  1.
         -4   -1    0    0    0  501 -0.00000000000E+00 -0.00000000000E+00 -0.74094774113E+02  0.74108379761E+02  0.14200000000E+01 0. -1.
       1023    2    1    2    0    0  0.00000000000E+00  0.00000000000E+00 -0.73135723335E+02  0.75821907816E+02  0.20003191670E+02 0.  0.
        -11    1    3    3    0    0 -0.39187886136E+01 -0.92004686308E+01 -0.37183647416E+02  0.38504923876E+02  0.51100000000E-03 0.  1.
         11    1    3    3    0    0  0.39187886136E+01  0.92004686308E+01 -0.35952075919E+02  0.37316983940E+02  0.51100000000E-03 0. -1.
<mgrwt>
<rscale>  0 0.20003192E+02</rscale>
<asrwt>0</asrwt>
<pdfrwt beam="1">  1        4 0.20662963E-03 0.20003192E+02</pdfrwt>
<pdfrwt beam="2">  1       -4 0.11458276E-01 0.20003192E+02</pdfrwt>
<totfact> 0.10546524E+06</totfact>
</mgrwt>
</event>
<event>
 5    1  0.1154861E-006  0.2000248E+02  0.7818608E-02  0.1745279E+00
          4   -1    0    0  501    0  0.00000000000E+00  0.00000000000E+00  0.28751106261E+02  0.28786151379E+02  0.14200000000E+01 0. -1.
         -4   -1    0    0    0  501 -0.00000000000E+00 -0.00000000000E+00 -0.32952689050E+01  0.35882024966E+01  0.14200000000E+01 0.  1.
       1023    2    1    2    0    0  0.00000000000E+00  0.00000000000E+00  0.25455837356E+02  0.32374353876E+02  0.20002478181E+02 0.  0.
        -11    1    3    3    0    0 -0.90533375434E+01  0.42481921636E+01  0.12531512091E+02  0.16032743149E+02  0.51100000000E-03 0. -1.
         11    1    3    3    0    0  0.90533375434E+01 -0.42481921636E+01  0.12924325265E+02  0.16341610727E+02  0.51100000000E-03 0.  1.
<mgrwt>
<rscale>  0 0.20002478E+02</rscale>
<asrwt>0</asrwt>
<pdfrwt beam="1">  1        4 0.44484761E-02 0.20002478E+02</pdfrwt>
<pdfrwt beam="2">  1       -4 0.53219359E-03 0.20002478E+02</pdfrwt>
<totfact> 0.12330287E+06</totfact>
</mgrwt>
</event>
<event>
 5    1  0.1154861E-006  0.2000157E+02  0.7818608E-02  0.1745297E+00
         -4   -1    0    0    0  501 -0.00000000000E+00  0.00000000000E+00  0.14601916532E+01  0.20368013315E+01  0.14200000000E+01 0. -1.
          4   -1    0    0  501    0  0.00000000000E+00 -0.00000000000E+00 -0.56614012483E+02  0.56631817995E+02  0.14200000000E+01 0.  1.
       1023    2    1    2    0    0  0.00000000000E+00  0.00000000000E+00 -0.55153820830E+02  0.58668619326E+02  0.20001573477E+02 0.  0.
        -11    1    3    3    0    0  0.94349855642E+01 -0.33146496059E+01 -0.27285347904E+02  0.29060214471E+02  0.51100000000E-03 0. -1.
         11    1    3    3    0    0 -0.94349855642E+01  0.33146496059E+01 -0.27868472925E+02  0.29608404855E+02  0.51100000000E-03 0.  1.
<mgrwt>
<rscale>  0 0.20001573E+02</rscale>
<asrwt>0</asrwt>
<pdfrwt beam="2">  1        4 0.87555709E-02 0.20001573E+02</pdfrwt>
<pdfrwt beam="1">  1       -4 0.27036916E-03 0.20001573E+02</pdfrwt>
<totfact> 0.11168454E+06</totfact>
</mgrwt>
</event>
<event>
 5    1  0.1154861E-006  0.2000127E+02  0.7818608E-02  0.1745303E+00
         -4   -1    0    0    0  501 -0.00000000000E+00  0.00000000000E+00  0.16912376661E+01  0.22083217255E+01  0.14200000000E+01 0.  1.
          4   -1    0    0  501    0  0.00000000000E+00 -0.00000000000E+00 -0.50766039192E+02  0.50785895042E+02  0.14200000000E+01 0. -1.
       1023    2    1    2    0    0  0.00000000000E+00  0.00000000000E+00 -0.49074801526E+02  0.52994216768E+02  0.20001271610E+02 0.  0.
        -11    1    3    3    0    0 -0.99695068314E+01 -0.78476649311E+00 -0.24335768430E+02  0.26310388637E+02  0.51100000000E-03 0.  1.
         11    1    3    3    0    0  0.99695068314E+01  0.78476649311E+00 -0.24739033096E+02  0.26683828130E+02  0.51100000000E-03 0. -1.
<mgrwt>
<rscale>  0 0.20001272E+02</rscale>
<asrwt>0</asrwt>
<pdfrwt beam="2">  1        4 0.78514619E-02 0.20001272E+02</pdfrwt>
<pdfrwt beam="1">  1       -4 0.30149352E-03 0.20001272E+02</pdfrwt>
<totfact> 0.11394641E+06</totfact>
</mgrwt>
</event>
<event>
 5    1  0.1183637E-006  0.2000102E+02  0.7818608E-02  0.1745308E+00
          4   -1    0    0  501    0  0.00000000000E+00  0.00000000000E+00  0.10237281945E+02  0.10335295913E+02  0.14200000000E+01 0.  1.
         -4   -1    0    0    0  501 -0.00000000000E+00 -0.00000000000E+00 -0.95720332467E+01  0.96767877148E+01  0.14200000000E+01 0. -1.
       1023    2    1    2    0    0  0.00000000000E+00  0.00000000000E+00  0.66524869782E+00  0.20012083628E+02  0.20001023356E+02 0.  0.
        -11    1    3    3    0    0 -0.93152792671E+01  0.36380987010E+01  0.33922974206E+00  0.10006261393E+02  0.51100000000E-03 0. -1.
         11    1    3    3    0    0  0.93152792671E+01 -0.36380987010E+01  0.32601895577E+00  0.10005822235E+02  0.51100000000E-03 0.  1.
<mgrwt>
<rscale>  0 0.20001023E+02</rscale>
<asrwt>0</asrwt>
<pdfrwt beam="1">  1        4 0.15905640E-02 0.20001023E+02</pdfrwt>
<pdfrwt beam="2">  1       -4 0.14882181E-02 0.20001023E+02</pdfrwt>
<totfact> 0.13011968E+06</totfact>
</mgrwt>
</event>
<event>
 5    1  0.1164877E-006  0.2000211E+02  0.7818608E-02  0.1745286E+00
          4   -1    0    0  501    0  0.00000000000E+00  0.00000000000E+00  0.41190891716E+02  0.41215360733E+02  0.14200000000E+01 0. -1.
         -4   -1    0    0    0  501 -0.00000000000E+00 -0.00000000000E+00 -0.21932009595E+01  0.26127629913E+01  0.14200000000E+01 0.  1.
       1023    2    1    2    0    0  0.00000000000E+00  0.00000000000E+00  0.38997690756E+02  0.43828123724E+02  0.20002113510E+02 0.  0.
        -11    1    3    3    0    0 -0.93748745718E+01 -0.34808649690E+01  0.19217880860E+02  0.21664063312E+02  0.51100000000E-03 0. -1.
         11    1    3    3    0    0  0.93748745718E+01  0.34808649690E+01  0.19779809897E+02  0.22164060413E+02  0.51100000000E-03 0.  1.
<mgrwt>
<rscale>  0 0.20002114E+02</rscale>
<asrwt>0</asrwt>
<pdfrwt beam="1">  1        4 0.63712160E-02 0.20002114E+02</pdfrwt>
<pdfrwt beam="2">  1       -4 0.37157180E-03 0.20002114E+02</pdfrwt>
<totfact> 0.11785423E+06</totfact>
</mgrwt>
</event>
<event>
 5    1  0.1154861E-006  0.2000023E+02  0.7818608E-02  0.1745323E+00
         -4   -1    0    0    0  501 -0.00000000000E+00  0.00000000000E+00  0.52096720047E+01  0.53997298448E+01  0.14200000000E+01 0.  1.
          4   -1    0    0  501    0  0.00000000000E+00 -0.00000000000E+00 -0.18634087578E+02  0.18688114401E+02  0.14200000000E+01 0. -1.
       1023    2    1    2    0    0  0.00000000000E+00  0.00000000000E+00 -0.13424415573E+02  0.24087844246E+02  0.20000232672E+02 0.  0.
        -11    1    3    3    0    0 -0.82314677230E+01 -0.56783925811E+01 -0.67525731407E+01  0.12066418170E+02  0.51100000000E-03 0. -1.
         11    1    3    3    0    0  0.82314677230E+01  0.56783925811E+01 -0.66718424327E+01  0.12021426075E+02  0.51100000000E-03 0.  1.
<mgrwt>
<rscale>  0 0.20000233E+02</rscale>
<asrwt>0</asrwt>
<pdfrwt beam="2">  1        4 0.28855584E-02 0.20000233E+02</pdfrwt>
<pdfrwt beam="1">  1       -4 0.82026375E-03 0.20000233E+02</pdfrwt>
<totfact> 0.12776504E+06</totfact>
</mgrwt>
</event>
<event>
 5    1  0.1154861E-006  0.2000192E+02  0.7818608E-02  0.1745290E+00
         -4   -1    0    0    0  501 -0.00000000000E+00  0.00000000000E+00  0.16942712948E+02  0.17002115222E+02  0.14200000000E+01 0.  1.
          4   -1    0    0  501    0  0.00000000000E+00 -0.00000000000E+00 -0.57470783017E+01  0.59199078545E+01  0.14200000000E+01 0. -1.
       1023    2    1    2    0    0  0.00000000000E+00  0.00000000000E+00  0.11195634646E+02  0.22922023077E+02  0.20001922578E+02 0.  0.
        -11    1    3    3    0    0 -0.95611910559E+01  0.29325572992E+01  0.55354716460E+01  0.11430560499E+02  0.51100000000E-03 0.  1.
         11    1    3    3    0    0  0.95611910559E+01 -0.29325572992E+01  0.56601630001E+01  0.11491462577E+02  0.51100000000E-03 0. -1.
<mgrwt>
<rscale>  0 0.20001923E+02</rscale>
<asrwt>0</asrwt>
<pdfrwt beam="2">  1        4 0.90202991E-03 0.20001923E+02</pdfrwt>
<pdfrwt beam="1">  1       -4 0.26244351E-02 0.20001923E+02</pdfrwt>
<totfact> 0.12840526E+06</totfact>
</mgrwt>
</event>
<event>
 4    1  0.1154861E-006  0.2001652E+02  0.7818608E-02  0.1745000E+00
          4   -1    0    0  501    0  0.00000000000E+00  0.00000000000E+00  0.29727798818E+02  0.29761693880E+02  0.14200000000E+01 0.  1.
         -4   -1    0    0    0  501 -0.00000000000E+00 -0.00000000000E+00 -0.31822913843E+01  0.34847350623E+01  0.14200000000E+01 0.  1.
        -11    1    1    2    0    0  0.78198916905E+01  0.62449597927E+01  0.13069065562E+02  0.16460580299E+02  0.51100000000E-03 0.  1.
         11    1    1    2    0    0 -0.78198916905E+01 -0.62449597927E+01  0.13476441872E+02  0.16785848643E+02  0.51100000000E-03 0. -1.
<mgrwt>
<rscale>  0 0.20016520E+02</rscale>
<asrwt>0</asrwt>
<pdfrwt beam="1">  1        4 0.45993798E-02 0.20016520E+02</pdfrwt>
<pdfrwt beam="2">  1       -4 0.51545549E-03 0.20016520E+02</pdfrwt>
<totfact> 0.12268711E+06</totfact>
</mgrwt>
</event>
<event>
 5    1  0.1154861E-006  0.2000666E+02  0.7818608E-02  0.1745196E+00
         -4   -1    0    0    0  501 -0.00000000000E+00  0.00000000000E+00  0.43192350447E+01  0.45466681615E+01  0.14200000000E+01 0.  1.
          4   -1    0    0  501    0  0.00000000000E+00 -0.00000000000E+00 -0.22322798791E+02  0.22367917781E+02  0.14200000000E+01 0. -1.
       1023    2    1    2    0    0  0.00000000000E+00  0.00000000000E+00 -0.18003563746E+02  0.26914585942E+02  0.20006664612E+02 0.  0.
        -11    1    3    3    0    0 -0.96443897707E+01  0.26451275378E+01 -0.86842749730E+01  0.13244907920E+02  0.51100000000E-03 0. -1.
         11    1    3    3    0    0  0.96443897707E+01 -0.26451275378E+01 -0.93192887728E+01  0.13669678022E+02  0.51100000000E-03 0.  1.
<mgrwt>
<rscale>  0 0.20006665E+02</rscale>
<asrwt>0</asrwt>
<pdfrwt beam="2">  1        4 0.34552422E-02 0.20006665E+02</pdfrwt>
<pdfrwt beam="1">  1       -4 0.68546326E-03 0.20006665E+02</pdfrwt>
<totfact> 0.12611584E+06</totfact>
</mgrwt>
</event>
<event>
 5    1  0.1154861E-006  0.2000087E+02  0.7818608E-02  0.1745311E+00
          4   -1    0    0  501    0  0.00000000000E+00  0.00000000000E+00  0.78395953094E+00  0.16220334602E+01  0.14200000000E+01 0.  1.
         -4   -1    0    0    0  501 -0.00000000000E+00 -0.00000000000E+00 -0.82286665865E+02  0.82298917242E+02  0.14200000000E+01 0. -1.
       1023    2    1    2    0    0  0.00000000000E+00  0.00000000000E+00 -0.81502706334E+02  0.83920950702E+02  0.20000870655E+02 0.  0.
        -11    1    3    3    0    0 -0.95616093274E+01  0.29285181200E+01 -0.40373371824E+02  0.41593385820E+02  0.51100000000E-03 0.  1.
         11    1    3    3    0    0  0.95616093274E+01 -0.29285181200E+01 -0.41129334511E+02  0.42327564882E+02  0.51100000000E-03 0. -1.
<mgrwt>
<rscale>  0 0.20000871E+02</rscale>
<asrwt>0</asrwt>
<pdfrwt beam="1">  1        4 0.18601886E-03 0.20000871E+02</pdfrwt>
<pdfrwt beam="2">  1       -4 0.12724892E-01 0.20000871E+02</pdfrwt>
<totfact> 0.10283941E+06</totfact>
</mgrwt>
</event>
<event>
 5    1  0.1154861E-006  0.2000013E+02  0.7818608E-02  0.1745326E+00
         -4   -1    0    0    0  501 -0.00000000000E+00  0.00000000000E+00  0.49728093653E+01  0.51715793510E+01  0.14200000000E+01 0. -1.
          4   -1    0    0  501    0  0.00000000000E+00 -0.00000000000E+00 -0.19490482661E+02  0.19542142010E+02  0.14200000000E+01 0.  1.
       1023    2    1    2    0    0  0.00000000000E+00  0.00000000000E+00 -0.14517673296E+02  0.24713721361E+02  0.20000129640E+02 0.  0.
        -11    1    3    3    0    0 -0.99808662092E+01 -0.61858982692E+00 -0.72207007944E+01  0.12334458394E+02  0.51100000000E-03 0. -1.
         11    1    3    3    0    0  0.99808662092E+01  0.61858982692E+00 -0.72969725012E+01  0.12379262967E+02  0.51100000000E-03 0.  1.
<mgrwt>
<rscale>  0 0.20000130E+02</rscale>
<asrwt>0</asrwt>
<pdfrwt beam="2">  1        4 0.30177996E-02 0.20000130E+02</pdfrwt>
<pdfrwt beam="1">  1       -4 0.78431140E-03 0.20000130E+02</pdfrwt>
<totfact> 0.12741438E+06</totfact>
</mgrwt>
</event>
<event>
 5    1  0.1154861E-006  0.2000185E+02  0.7818608E-02  0.1745291E+00
         -4   -1    0    0    0  501 -0.00000000000E+00  0.00000000000E+00  0.11123463501E+01  0.18038055335E+01  0.14200000000E+01 0. -1.
          4   -1    0    0  501    0  0.00000000000E+00 -0.00000000000E+00 -0.67895608590E+02  0.67910456233E+02  0.14200000000E+01 0.  1.
       1023    2    1    2    0    0  0.00000000000E+00  0.00000000000E+00 -0.66783262239E+02  0.69714261766E+02  0.20001854371E+02 0.  0.
        -11    1    3    3    0    0  0.95410117048E+01  0.29979157160E+01 -0.33433064161E+02  0.34896821954E+02  0.51100000000E-03 0. -1.
         11    1    3    3    0    0 -0.95410117048E+01 -0.29979157160E+01 -0.33350198078E+02  0.34817439812E+02  0.51100000000E-03 0.  1.
<mgrwt>
<rscale>  0 0.20001854E+02</rscale>
<asrwt>0</asrwt>
<pdfrwt beam="2">  1        4 0.10499807E-01 0.20001854E+02</pdfrwt>
<pdfrwt beam="1">  1       -4 0.22546156E-03 0.20001854E+02</pdfrwt>
<totfact> 0.10758898E+06</totfact>
</mgrwt>
</event>
<event>
 5    1  0.1173808E-006  0.2000092E+02  0.7818608E-02  0.1745310E+00
         -4   -1    0    0    0  501 -0.00000000000E+00  0.00000000000E+00  0.77401952472E+01  0.78693724314E+01  0.14200000000E+01 0. -1.
          4   -1    0    0  501    0  0.00000000000E+00 -0.00000000000E+00 -0.12644580251E+02  0.12724064198E+02  0.14200000000E+01 0.  1.
       1023    2    1    2    0    0  0.00000000000E+00  0.00000000000E+00 -0.49043850034E+01  0.20593436629E+02  0.20000915978E+02 0.  0.
        -11    1    3    3    0    0 -0.95586033300E+01 -0.29386412449E+01 -0.25361542033E+01  0.10316714031E+02  0.51100000000E-03 0. -1.
         11    1    3    3    0    0  0.95586033300E+01  0.29386412449E+01 -0.23682308000E+01  0.10276722599E+02  0.51100000000E-03 0.  1.
<mgrwt>
<rscale>  0 0.20000916E+02</rscale>
<asrwt>0</asrwt>
<pdfrwt beam="2">  1        4 0.19613709E-02 0.20000916E+02</pdfrwt>
<pdfrwt beam="1">  1       -4 0.12068501E-02 0.20000916E+02</pdfrwt>
<totfact> 0.12977581E+06</totfact>
</mgrwt>
</event>
<event>
 4    1  0.1154861E-006  0.2004055E+02  0.7818608E-02  0.1744523E+00
          4   -1    0    0  501    0  0.00000000000E+00  0.00000000000E+00  0.41366458358E+02  0.41390823585E+02  0.14200000000E+01 0.  1.
         -4   -1    0    0    0  501 -0.00000000000E+00 -0.00000000000E+00 -0.21922297328E+01  0.26119477792E+01  0.14200000000E+01 0. -1.
        -11    1    1    2    0    0 -0.85712372194E+01  0.51845277407E+01  0.19047094907E+02  0.21520624062E+02  0.51100000000E-03 0.  1.
         11    1    1    2    0    0  0.85712372194E+01 -0.51845277407E+01  0.20127133718E+02  0.22482147302E+02  0.51100000000E-03 0. -1.
<mgrwt>
<rscale>  0 0.20040551E+02</rscale>
<asrwt>0</asrwt>
<pdfrwt beam="1">  1        4 0.63982306E-02 0.20040551E+02</pdfrwt>
<pdfrwt beam="2">  1       -4 0.37142638E-03 0.20040551E+02</pdfrwt>
<totfact> 0.11731987E+06</totfact>
</mgrwt>
</event>
<event>
 5    1  0.1154861E-006  0.2000151E+02  0.7818608E-02  0.1745298E+00
         -4   -1    0    0    0  501 -0.00000000000E+00  0.00000000000E+00  0.41153185902E+02  0.41177677325E+02  0.14200000000E+01 0.  1.
          4   -1    0    0  501    0  0.00000000000E+00 -0.00000000000E+00 -0.21954333646E+01  0.26146371944E+01  0.14200000000E+01 0. -1.
       1023    2    1    2    0    0  0.00000000000E+00  0.00000000000E+00  0.38957752538E+02  0.43792314520E+02  0.20001508148E+02 0.  0.
        -11    1    3    3    0    0 -0.98104361556E+01 -0.19415784987E+01  0.19421066471E+02  0.21844729519E+02  0.51100000000E-03 0.  1.
         11    1    3    3    0    0  0.98104361556E+01  0.19415784987E+01  0.19536686066E+02  0.21947585000E+02  0.51100000000E-03 0. -1.
<mgrwt>
<rscale>  0 0.20001508E+02</rscale>
<asrwt>0</asrwt>
<pdfrwt beam="2">  1        4 0.37188943E-03 0.20001508E+02</pdfrwt>
<pdfrwt beam="1">  1       -4 0.63653890E-02 0.20001508E+02</pdfrwt>
<totfact> 0.11787747E+06</totfact>
</mgrwt>
</event>
<event>
 5    1  0.1154861E-006  0.2000025E+02  0.7818608E-02  0.1745323E+00
          4   -1    0    0  501    0  0.00000000000E+00  0.00000000000E+00  0.18365938971E+02  0.18420752272E+02  0.14200000000E+01 0.  1.
         -4   -1    0    0    0  501 -0.00000000000E+00 -0.00000000000E+00 -0.52882683194E+01  0.54755987634E+01  0.14200000000E+01 0. -1.
       1023    2    1    2    0    0  0.00000000000E+00  0.00000000000E+00  0.13077670651E+02  0.23896351035E+02  0.20000253077E+02 0.  0.
        -11    1    3    3    0    0 -0.99786734265E+01  0.65465633257E+00  0.65320490809E+01  0.11944461634E+02  0.51100000000E-03 0. -1.
         11    1    3    3    0    0  0.99786734265E+01 -0.65465633257E+00  0.65456215703E+01  0.11951889402E+02  0.51100000000E-03 0.  1.
<mgrwt>
<rscale>  0 0.20000253E+02</rscale>
<asrwt>0</asrwt>
<pdfrwt beam="1">  1        4 0.28441555E-02 0.20000253E+02</pdfrwt>
<pdfrwt beam="2">  1       -4 0.83220619E-03 0.20000253E+02</pdfrwt>
<totfact> 0.12787281E+06</totfact>
</mgrwt>
</event>
<event>
 5    1  0.1154861E-006  0.2000082E+02  0.7818608E-02  0.1745312E+00
         -4   -1    0    0    0  501 -0.00000000000E+00  0.00000000000E+00  0.12315927307E+01  0.18796863181E+01  0.14200000000E+01 0.  1.
          4   -1    0    0  501    0  0.00000000000E+00 -0.00000000000E+00 -0.63629863035E+02  0.63645705824E+02  0.14200000000E+01 0. -1.
       1023    2    1    2    0    0  0.00000000000E+00  0.00000000000E+00 -0.62398270304E+02  0.65525392142E+02  0.20000821944E+02 0.  0.
        -11    1    3    3    0    0  0.41823283125E+01 -0.90836773407E+01 -0.31015110843E+02  0.32587454104E+02  0.51100000000E-03 0.  1.
         11    1    3    3    0    0 -0.41823283125E+01  0.90836773407E+01 -0.31383159461E+02  0.32937938038E+02  0.51100000000E-03 0. -1.
<mgrwt>
<rscale>  0 0.20000822E+02</rscale>
<asrwt>0</asrwt>
<pdfrwt beam="2">  1        4 0.98402797E-02 0.20000822E+02</pdfrwt>
<pdfrwt beam="1">  1       -4 0.24054788E-03 0.20000822E+02</pdfrwt>
<totfact> 0.10910782E+06</totfact>
</mgrwt>
</event>
<event>
 5    1  0.1174189E-006  0.2000106E+02  0.7818608E-02  0.1745307E+00
         -4   -1    0    0    0  501 -0.00000000000E+00  0.00000000000E+00  0.21321307801E+01  0.25617145945E+01  0.14200000000E+01 0.  1.
          4   -1    0    0  501    0  0.00000000000E+00 -0.00000000000E+00 -0.42170886043E+02  0.42194786760E+02  0.14200000000E+01 0. -1.
       1023    2    1    2    0    0  0.00000000000E+00  0.00000000000E+00 -0.40038755263E+02  0.44756501354E+02  0.20001062232E+02 0.  0.
        -11    1    3    3    0    0  0.37514130146E+01 -0.92701983518E+01 -0.19950579305E+02  0.22316704326E+02  0.51100000000E-03 0. -1.
         11    1    3    3    0    0 -0.37514130146E+01  0.92701983518E+01 -0.20088175958E+02  0.22439797028E+02  0.51100000000E-03 0.  1.
<mgrwt>
<rscale>  0 0.20001062E+02</rscale>
<asrwt>0</asrwt>
<pdfrwt beam="2">  1        4 0.65227115E-02 0.20001062E+02</pdfrwt>
<pdfrwt beam="1">  1       -4 0.36290358E-03 0.20001062E+02</pdfrwt>
<totfact> 0.11745328E+06</totfact>
</mgrwt>
</event>
<event>
 5    1  0.1154861E-006  0.2000037E+02  0.7818608E-02  0.1745321E+00
          4   -1    0    0  501    0  0.00000000000E+00  0.00000000000E+00  0.35808620623E+01  0.38521387707E+01  0.14200000000E+01 0.  1.
         -4   -1    0    0    0  501 -0.00000000000E+00 -0.00000000000E+00 -0.26617147971E+02  0.26654998895E+02  0.14200000000E+01 0. -1.
       1023    2    1    2    0    0  0.00000000000E+00  0.00000000000E+00 -0.23036285909E+02  0.30507137666E+02  0.20000374499E+02 0.  0.
        -11    1    3    3    0    0 -0.47365186736E+01  0.88072752740E+01 -0.11567282880E+02  0.15290674949E+02  0.51100000000E-03 0.  1.
         11    1    3    3    0    0  0.47365186736E+01 -0.88072752740E+01 -0.11469003029E+02  0.15216462717E+02  0.51100000000E-03 0. -1.
<mgrwt>
<rscale>  0 0.20000374E+02</rscale>
<asrwt>0</asrwt>
<pdfrwt beam="1">  1        4 0.57468092E-03 0.20000374E+02</pdfrwt>
<pdfrwt beam="2">  1       -4 0.41187248E-02 0.20000374E+02</pdfrwt>
<totfact> 0.12428864E+06</totfact>
</mgrwt>
</event>
<event>
 5    1  0.1158705E-006  0.2000061E+02  0.7818608E-02  0.1745316E+00
         -4   -1    0    0    0  501 -0.00000000000E+00  0.00000000000E+00  0.12890266482E+02  0.12968244676E+02  0.14200000000E+01 0.  1.
          4   -1    0    0  501    0  0.00000000000E+00 -0.00000000000E+00 -0.75908516540E+01  0.77225273605E+01  0.14200000000E+01 0. -1.
       1023    2    1    2    0    0  0.00000000000E+00  0.00000000000E+00  0.52994148283E+01  0.20690772037E+02  0.20000606240E+02 0.  0.
        -11    1    3    3    0    0 -0.55680873580E+01 -0.83067544196E+01  0.26318966581E+01  0.10340824246E+02  0.51100000000E-03 0.  1.
         11    1    3    3    0    0  0.55680873580E+01  0.83067544196E+01  0.26675181701E+01  0.10349947790E+02  0.51100000000E-03 0. -1.
<mgrwt>
<rscale>  0 0.20000606E+02</rscale>
<asrwt>0</asrwt>
<pdfrwt beam="2">  1        4 0.11839506E-02 0.20000606E+02</pdfrwt>
<pdfrwt beam="1">  1       -4 0.19992451E-02 0.20000606E+02</pdfrwt>
<totfact> 0.12972243E+06</totfact>
</mgrwt>
</event>
<event>
 5    1  0.1154861E-006  0.2000034E+02  0.7818608E-02  0.1745321E+00
          4   -1    0    0  501    0  0.00000000000E+00  0.00000000000E+00  0.22431941458E+01  0.26548672238E+01  0.14200000000E+01 0. -1.
         -4   -1    0    0    0  501 -0.00000000000E+00 -0.00000000000E+00 -0.40408664976E+02  0.40433607372E+02  0.14200000000E+01 0.  1.
       1023    2    1    2    0    0  0.00000000000E+00  0.00000000000E+00 -0.38165470830E+02  0.43088474596E+02  0.20000336980E+02 0.  0.
        -11    1    3    3    0    0  0.57681851567E+01  0.81689156201E+01 -0.19050264827E+02  0.21515476584E+02  0.51100000000E-03 0. -1.
         11    1    3    3    0    0 -0.57681851567E+01 -0.81689156201E+01 -0.19115206003E+02  0.21572998012E+02  0.51100000000E-03 0.  1.
<mgrwt>
<rscale>  0 0.20000337E+02</rscale>
<asrwt>0</asrwt>
<pdfrwt beam="1">  1        4 0.37869263E-03 0.20000337E+02</pdfrwt>
<pdfrwt beam="2">  1       -4 0.62503030E-02 0.20000337E+02</pdfrwt>
<totfact> 0.11820772E+06</totfact>
</mgrwt>
</event>
<event>
 5    1  0.1154861E-006  0.2000057E+02  0.7818608E-02  0.1745317E+00
         -4   -1    0    0    0  501 -0.00000000000E+00  0.00000000000E+00  0.46246811509E+02  0.46268606795E+02  0.14200000000E+01 0. -1.
          4   -1    0    0  501    0  0.00000000000E+00 -0.00000000000E+00 -0.19045225874E+01  0.23756275562E+01  0.14200000000E+01 0.  1.
       1023    2    1    2    0    0  0.00000000000E+00  0.00000000000E+00  0.44342288922E+02  0.48644234352E+02  0.20000573712E+02 0.  0.
        -11    1    3    3    0    0 -0.92770700688E+01  0.37337549694E+01  0.22103144089E+02  0.24260130546E+02  0.51100000000E-03 0. -1.
         11    1    3    3    0    0  0.92770700688E+01 -0.37337549694E+01  0.22239144833E+02  0.24384103805E+02  0.51100000000E-03 0.  1.
<mgrwt>
<rscale>  0 0.20000574E+02</rscale>
<asrwt>0</asrwt>
<pdfrwt beam="2">  1        4 0.33091892E-03 0.20000574E+02</pdfrwt>
<pdfrwt beam="1">  1       -4 0.71528087E-02 0.20000574E+02</pdfrwt>
<totfact> 0.11576945E+06</totfact>
</mgrwt>
</event>
<event>
 5    1  0.1158930E-006  0.2000265E+02  0.7818608E-02  0.1745275E+00
          4   -1    0    0  501    0  0.00000000000E+00  0.00000000000E+00  0.99394396304E+01  0.10040361556E+02  0.14200000000E+01 0. -1.
         -4   -1    0    0    0  501 -0.00000000000E+00 -0.00000000000E+00 -0.98607205370E+01  0.99624399375E+01  0.14200000000E+01 0.  1.
       1023    2    1    2    0    0  0.00000000000E+00  0.00000000000E+00  0.78719093417E-01  0.20002801493E+02  0.20002646597E+02 0.  0.
        -11    1    3    3    0    0  0.21015545326E+01  0.97774489086E+01  0.14626614509E+00  0.10001821467E+02  0.51100000000E-03 0.  1.
         11    1    3    3    0    0 -0.21015545326E+01 -0.97774489086E+01 -0.67547051673E-01  0.10000980026E+02  0.51100000000E-03 0. -1.
<mgrwt>
<rscale>  0 0.20002647E+02</rscale>
<asrwt>0</asrwt>
<pdfrwt beam="1">  1        4 0.15447324E-02 0.20002647E+02</pdfrwt>
<pdfrwt beam="2">  1       -4 0.15326217E-02 0.20002647E+02</pdfrwt>
<totfact> 0.13010363E+06</totfact>
</mgrwt>
</event>
<event>
 5    1  0.1154861E-006  0.2000776E+02  0.7818608E-02  0.1745174E+00
          4   -1    0    0  501    0  0.00000000000E+00  0.00000000000E+00  0.31605470325E+01  0.34648892543E+01  0.14200000000E+01 0. -1.
         -4   -1    0    0    0  501 -0.00000000000E+00 -0.00000000000E+00 -0.29888157462E+02  0.29921870871E+02  0.14200000000E+01 0.  1.
       1023    2    1    2    0    0  0.00000000000E+00  0.00000000000E+00 -0.26727610429E+02  0.33386760126E+02  0.20007763304E+02 0.  0.
        -11    1    3    3    0    0  0.99956610780E+01 -0.29843982108E+00 -0.12905777435E+02  0.16326708124E+02  0.51100000000E-03 0.  1.
         11    1    3    3    0    0 -0.99956610780E+01  0.29843982108E+00 -0.13821832994E+02  0.17060052001E+02  0.51100000000E-03 0. -1.
<mgrwt>
<rscale>  0 0.20007763E+02</rscale>
<asrwt>0</asrwt>
<pdfrwt beam="1">  1        4 0.51224230E-03 0.20007763E+02</pdfrwt>
<pdfrwt beam="2">  1       -4 0.46241822E-02 0.20007763E+02</pdfrwt>
<totfact> 0.12272563E+06</totfact>
</mgrwt>
</event>
<event>
 5    1  0.1157292E-006  0.2000110E+02  0.7818608E-02  0.1745306E+00
          4   -1    0    0  501    0  0.00000000000E+00  0.00000000000E+00  0.14262382640E+01  0.20125992114E+01  0.14200000000E+01 0.  1.
         -4   -1    0    0    0  501 -0.00000000000E+00 -0.00000000000E+00 -0.57568984681E+02  0.57586494920E+02  0.14200000000E+01 0. -1.
       1023    2    1    2    0    0  0.00000000000E+00  0.00000000000E+00 -0.56142746417E+02  0.59599094132E+02  0.20001101121E+02 0.  0.
        -11    1    3    3    0    0 -0.44085107830E+01  0.89764130579E+01 -0.28092973247E+02  0.29819894447E+02  0.51100000000E-03 0.  1.
         11    1    3    3    0    0  0.44085107830E+01 -0.89764130579E+01 -0.28049773170E+02  0.29779199685E+02  0.51100000000E-03 0. -1.
<mgrwt>
<rscale>  0 0.20001101E+02</rscale>
<asrwt>0</asrwt>
<pdfrwt beam="1">  1        4 0.26587295E-03 0.20001101E+02</pdfrwt>
<pdfrwt beam="2">  1       -4 0.89032170E-02 0.20001101E+02</pdfrwt>
<totfact> 0.11133041E+06</totfact>
</mgrwt>
</event>
<event>
 5    1  0.1154861E-006  0.2000021E+02  0.7818608E-02  0.1745324E+00
          4   -1    0    0  501    0  0.00000000000E+00  0.00000000000E+00  0.11715968443E+03  0.11716828946E+03  0.14200000000E+01 0. -1.
         -4   -1    0    0    0  501 -0.00000000000E+00 -0.00000000000E+00 -0.24825349727E+00  0.14415373040E+01  0.14200000000E+01 0.  1.
       1023    2    1    2    0    0  0.00000000000E+00  0.00000000000E+00  0.11691143093E+03  0.11860982676E+03  0.20000208074E+02 0.  0.
        -11    1    3    3    0    0 -0.88769529414E+01  0.46045297273E+01  0.58398537971E+02  0.59248554623E+02  0.51100000000E-03 0.  1.
         11    1    3    3    0    0  0.88769529414E+01 -0.46045297273E+01  0.58512892959E+02  0.59361272141E+02  0.51100000000E-03 0. -1.
<mgrwt>
<rscale>  0 0.20000208E+02</rscale>
<asrwt>0</asrwt>
<pdfrwt beam="1">  1        4 0.18117016E-01 0.20000208E+02</pdfrwt>
<pdfrwt beam="2">  1       -4 0.13064586E-03 0.20000208E+02</pdfrwt>
<totfact> 0.93007685E+05</totfact>
</mgrwt>
</event>
<event>
 5    1  0.1154861E-006  0.2000050E+02  0.7818608E-02  0.1745318E+00
         -4   -1    0    0    0  501 -0.00000000000E+00  0.00000000000E+00  0.56234410880E+00  0.15272952880E+01  0.14200000000E+01 0.  1.
          4   -1    0    0  501    0  0.00000000000E+00 -0.00000000000E+00 -0.94742374745E+02  0.94753015637E+02  0.14200000000E+01 0. -1.
       1023    2    1    2    0    0  0.00000000000E+00  0.00000000000E+00 -0.94180030636E+02  0.96280310925E+02  0.20000502524E+02 0.  0.
        -11    1    3    3    0    0  0.47470474475E+01 -0.88014932783E+01 -0.46775021761E+02  0.47832033245E+02  0.51100000000E-03 0. -1.
         11    1    3    3    0    0 -0.47470474475E+01  0.88014932783E+01 -0.47405008875E+02  0.48448277679E+02  0.51100000000E-03 0.  1.
<mgrwt>
<rscale>  0 0.20000503E+02</rscale>
<asrwt>0</asrwt>
<pdfrwt beam="2">  1        4 0.14650789E-01 0.20000503E+02</pdfrwt>
<pdfrwt beam="1">  1       -4 0.16156010E-03 0.20000503E+02</pdfrwt>
<totfact> 0.99079783E+05</totfact>
</mgrwt>
</event>
<event>
 5    1  0.1154861E-006  0.2000158E+02  0.7818608E-02  0.1745297E+00
         -4   -1    0    0    0  501 -0.00000000000E+00  0.00000000000E+00  0.27131395260E+02  0.27168529749E+02  0.14200000000E+01 0. -1.
          4   -1    0    0  501    0  0.00000000000E+00 -0.00000000000E+00 -0.35083590312E+01  0.37848359399E+01  0.14200000000E+01 0.  1.
       1023    2    1    2    0    0  0.00000000000E+00  0.00000000000E+00  0.23623036229E+02  0.30953365689E+02  0.20001575109E+02 0.  0.
        -11    1    3    3    0    0 -0.98933564147E+01 -0.14617466657E+01  0.11847711666E+02  0.15504305094E+02  0.51100000000E-03 0.  1.
         11    1    3    3    0    0  0.98933564147E+01  0.14617466657E+01  0.11775324562E+02  0.15449060595E+02  0.51100000000E-03 0. -1.
<mgrwt>
<rscale>  0 0.20001575E+02</rscale>
<asrwt>0</asrwt>
<pdfrwt beam="2">  1        4 0.56387149E-03 0.20001575E+02</pdfrwt>
<pdfrwt beam="1">  1       -4 0.41981848E-02 0.20001575E+02</pdfrwt>
<totfact> 0.12404257E+06</totfact>
</mgrwt>
</event>
<event>
 5    1  0.1154861E-006  0.2000249E+02  0.7818608E-02  0.1745278E+00
          4   -1    0    0  501    0  0.00000000000E+00  0.00000000000E+00  0.23998329336E+01  0.27884759474E+01  0.14200000000E+01 0.  1.
         -4   -1    0    0    0  501 -0.00000000000E+00 -0.00000000000E+00 -0.38154983964E+02  0.38181398630E+02  0.14200000000E+01 0. -1.
       1023    2    1    2    0    0  0.00000000000E+00  0.00000000000E+00 -0.35755151031E+02  0.40969874577E+02  0.20002494785E+02 0.  0.
        -11    1    3    3    0    0  0.74433135815E+01  0.66782760286E+01 -0.17569240079E+02  0.20215847373E+02  0.51100000000E-03 0.  1.
         11    1    3    3    0    0 -0.74433135815E+01 -0.66782760286E+01 -0.18185910952E+02  0.20754027204E+02  0.51100000000E-03 0. -1.
<mgrwt>
<rscale>  0 0.20002495E+02</rscale>
<asrwt>0</asrwt>
<pdfrwt beam="1">  1        4 0.40113261E-03 0.20002495E+02</pdfrwt>
<pdfrwt beam="2">  1       -4 0.59019246E-02 0.20002495E+02</pdfrwt>
<totfact> 0.11914698E+06</totfact>
</mgrwt>
</event>
<event>
 5    1  0.1154861E-006  0.2000242E+02  0.7818608E-02  0.1745280E+00
         -4   -1    0    0    0  501 -0.00000000000E+00  0.00000000000E+00  0.16378710975E+01  0.21677227065E+01  0.14200000000E+01 0. -1.
          4   -1    0    0  501    0  0.00000000000E+00 -0.00000000000E+00 -0.52026042525E+02  0.52045417674E+02  0.14200000000E+01 0.  1.
       1023    2    1    2    0    0  0.00000000000E+00  0.00000000000E+00 -0.50388171428E+02  0.54213140380E+02  0.20002419105E+02 0.  0.
        -11    1    3    3    0    0  0.70532050940E+01 -0.70900276408E+01 -0.24951693638E+02  0.26881279912E+02  0.51100000000E-03 0. -1.
         11    1    3    3    0    0 -0.70532050940E+01  0.70900276408E+01 -0.25436477790E+02  0.27331860468E+02  0.51100000000E-03 0.  1.
<mgrwt>
<rscale>  0 0.20002419E+02</rscale>
<asrwt>0</asrwt>
<pdfrwt beam="2">  1        4 0.80462537E-02 0.20002419E+02</pdfrwt>
<pdfrwt beam="1">  1       -4 0.29422842E-03 0.20002419E+02</pdfrwt>
<totfact> 0.11343815E+06</totfact>
</mgrwt>
</event>
<event>
 5    1  0.1154861E-006  0.2000038E+02  0.7818608E-02  0.1745320E+00
         -4   -1    0    0    0  501 -0.00000000000E+00  0.00000000000E+00  0.83095846924E+00  0.16452634979E+01  0.14200000000E+01 0.  1.
          4   -1    0    0  501    0  0.00000000000E+00 -0.00000000000E+00 -0.79948619951E+02  0.79961229556E+02  0.14200000000E+01 0. -1.
       1023    2    1    2    0    0  0.00000000000E+00  0.00000000000E+00 -0.79117661482E+02  0.81606493054E+02  0.20000383751E+02 0.  0.
        -11    1    3    3    0    0  0.93878686365E+01  0.34450067537E+01 -0.39806626866E+02  0.41043485376E+02  0.51100000000E-03 0. -1.
         11    1    3    3    0    0 -0.93878686365E+01 -0.34450067537E+01 -0.39311034616E+02  0.40563007678E+02  0.51100000000E-03 0.  1.
<mgrwt>
<rscale>  0 0.20000384E+02</rscale>
<asrwt>0</asrwt>
<pdfrwt beam="2">  1        4 0.12363393E-01 0.20000384E+02</pdfrwt>
<pdfrwt beam="1">  1       -4 0.19144864E-03 0.20000384E+02</pdfrwt>
<totfact> 0.10358565E+06</totfact>
</mgrwt>
</event>
<event>
 5    1  0.1154861E-006  0.2000135E+02  0.7818608E-02  0.1745301E+00
         -4   -1    0    0    0  501 -0.00000000000E+00  0.00000000000E+00  0.31882622639E+00  0.14553522469E+01  0.14200000000E+01 0. -1.
          4   -1    0    0  501    0  0.00000000000E+00 -0.00000000000E+00 -0.11159949954E+03  0.11160853326E+03  0.14200000000E+01 0.  1.
       1023    2    1    2    0    0  0.00000000000E+00  0.00000000000E+00 -0.11128067331E+03  0.11306388551E+03  0.20001348803E+02 0.  0.
        -11    1    3    3    0    0 -0.34383386819E+01 -0.93909939648E+01 -0.55508046319E+02  0.56401738865E+02  0.51100000000E-03 0.  1.
         11    1    3    3    0    0  0.34383386819E+01  0.93909939648E+01 -0.55772626990E+02  0.56662146643E+02  0.51100000000E-03 0. -1.
<mgrwt>
<rscale>  0 0.20001349E+02</rscale>
<asrwt>0</asrwt>
<pdfrwt beam="2">  1        4 0.17257263E-01 0.20001349E+02</pdfrwt>
<pdfrwt beam="1">  1       -4 0.13717026E-03 0.20001349E+02</pdfrwt>
<totfact> 0.94428546E+05</totfact>
</mgrwt>
</event>
<event>
 4    1  0.1228592E-006  0.2020453E+02  0.7818608E-02  0.1741291E+00
         -4   -1    0    0    0  501 -0.00000000000E+00  0.00000000000E+00  0.45435875860E+00  0.14909198106E+01  0.14200000000E+01 0. -1.
          4   -1    0    0  501    0  0.00000000000E+00 -0.00000000000E+00 -0.10388264908E+03  0.10389235381E+03  0.14200000000E+01 0.  1.
        -11    1    1    2    0    0  0.35983046586E+01 -0.93871134663E+01 -0.46524245990E+02  0.47598016354E+02  0.51100000000E-03 0. -1.
         11    1    1    2    0    0 -0.35983046586E+01  0.93871134663E+01 -0.56904044328E+02  0.57785257262E+02  0.51100000000E-03 0.  1.
<mgrwt>
<rscale>  0 0.20204532E+02</rscale>
<asrwt>0</asrwt>
<pdfrwt beam="2">  1        4 0.16062419E-01 0.20204532E+02</pdfrwt>
<pdfrwt beam="1">  1       -4 0.15038341E-03 0.20204532E+02</pdfrwt>
<totfact> 0.94565632E+05</totfact>
</mgrwt>
</event>
<event>
 5    1  0.1154861E-006  0.2000177E+02  0.7818608E-02  0.1745293E+00
          4   -1    0    0  501    0  0.00000000000E+00  0.00000000000E+00  0.71522669508E+01  0.72918668759E+01  0.14200000000E+01 0.  1.
         -4   -1    0    0    0  501 -0.00000000000E+00 -0.00000000000E+00 -0.13672171497E+02  0.13745714730E+02  0.14200000000E+01 0. -1.
       1023    2    1    2    0    0  0.00000000000E+00  0.00000000000E+00 -0.65199045457E+01  0.21037581606E+02  0.20001767035E+02 0.  0.
        -11    1    3    3    0    0 -0.54801367857E+01  0.83652863633E+01 -0.33525795950E+01  0.10547497586E+02  0.51100000000E-03 0. -1.
         11    1    3    3    0    0  0.54801367857E+01 -0.83652863633E+01 -0.31673249507E+01  0.10490084019E+02  0.51100000000E-03 0.  1.
<mgrwt>
<rscale>  0 0.20001767E+02</rscale>
<asrwt>0</asrwt>
<pdfrwt beam="1">  1        4 0.11167444E-02 0.20001767E+02</pdfrwt>
<pdfrwt beam="2">  1       -4 0.21198066E-02 0.20001767E+02</pdfrwt>
<totfact> 0.12950198E+06</totfact>
</mgrwt>
</event>
<event>
 5    1  0.1154861E-006  0.2000026E+02  0.7818608E-02  0.1745323E+00
          4   -1    0    0  501    0  0.00000000000E+00  0.00000000000E+00  0.14512428836E+01  0.20303955051E+01  0.14200000000E+01 0.  1.
         -4   -1    0    0    0  501 -0.00000000000E+00 -0.00000000000E+00 -0.56856217858E+02  0.56873947543E+02  0.14200000000E+01 0. -1.
       1023    2    1    2    0    0  0.00000000000E+00  0.00000000000E+00 -0.55404974975E+02  0.58904343048E+02  0.20000259448E+02 0.  0.
        -11    1    3    3    0    0 -0.24059403612E+01  0.97062829934E+01 -0.27567019795E+02  0.29324751648E+02  0.51100000000E-03 0.  1.
         11    1    3    3    0    0  0.24059403612E+01 -0.97062829934E+01 -0.27837955179E+02  0.29579591400E+02  0.51100000000E-03 0. -1.
<mgrwt>
<rscale>  0 0.20000259E+02</rscale>
<asrwt>0</asrwt>
<pdfrwt beam="1">  1        4 0.26918220E-03 0.20000259E+02</pdfrwt>
<pdfrwt beam="2">  1       -4 0.87930230E-02 0.20000259E+02</pdfrwt>
<totfact> 0.11160796E+06</totfact>
</mgrwt>
</event>
<event>
 5    1  0.1176891E-006  0.2000118E+02  0.7818608E-02  0.1745305E+00
          4   -1    0    0  501    0  0.00000000000E+00  0.00000000000E+00  0.37805224046E+02  0.37831882918E+02  0.14200000000E+01 0. -1.
         -4   -1    0    0    0  501 -0.00000000000E+00 -0.00000000000E+00 -0.24252221093E+01  0.28103562549E+01  0.14200000000E+01 0.  1.
       1023    2    1    2    0    0  0.00000000000E+00  0.00000000000E+00  0.35380001936E+02  0.40642239173E+02  0.20001176665E+02 0.  0.
        -11    1    3    3    0    0  0.96610317257E+01  0.25836195953E+01  0.17621317263E+02  0.20261328845E+02  0.51100000000E-03 0.  1.
         11    1    3    3    0    0 -0.96610317257E+01 -0.25836195953E+01  0.17758684674E+02  0.20380910328E+02  0.51100000000E-03 0. -1.
<mgrwt>
<rscale>  0 0.20001177E+02</rscale>
<asrwt>0</asrwt>
<pdfrwt beam="1">  1        4 0.58478650E-02 0.20001177E+02</pdfrwt>
<pdfrwt beam="2">  1       -4 0.40478746E-03 0.20001177E+02</pdfrwt>
<totfact> 0.11931401E+06</totfact>
</mgrwt>
</event>
<event>
 5    1  0.1160240E-006  0.2000175E+02  0.7818608E-02  0.1745293E+00
         -4   -1    0    0    0  501 -0.00000000000E+00  0.00000000000E+00  0.81714855962E+01  0.82939482063E+01  0.14200000000E+01 0.  1.
          4   -1    0    0  501    0  0.00000000000E+00 -0.00000000000E+00 -0.11984087682E+02  0.12067922670E+02  0.14200000000E+01 0. -1.
       1023    2    1    2    0    0  0.00000000000E+00  0.00000000000E+00 -0.38126020860E+01  0.20361870877E+02  0.20001746197E+02 0.  0.
        -11    1    3    3    0    0  0.70171664767E+01  0.71252899548E+01 -0.18206423201E+01  0.10164896508E+02  0.51100000000E-03 0. -1.
         11    1    3    3    0    0 -0.70171664767E+01 -0.71252899548E+01 -0.19919597659E+01  0.10196974368E+02  0.51100000000E-03 0.  1.
<mgrwt>
<rscale>  0 0.20001746E+02</rscale>
<asrwt>0</asrwt>
<pdfrwt beam="2">  1        4 0.18595748E-02 0.20001746E+02</pdfrwt>
<pdfrwt beam="1">  1       -4 0.12730207E-02 0.20001746E+02</pdfrwt>
<totfact> 0.12990197E+06</totfact>
</mgrwt>
</event>
<event>
 5    1  0.1154861E-006  0.2000053E+02  0.7818608E-02  0.1745318E+00
          4   -1    0    0  501    0  0.00000000000E+00  0.00000000000E+00  0.30611182834E+02  0.30644100811E+02  0.14200000000E+01 0.  1.
         -4   -1    0    0    0  501 -0.00000000000E+00 -0.00000000000E+00 -0.30762340695E+01  0.33881582092E+01  0.14200000000E+01 0. -1.
       1023    2    1    2    0    0  0.00000000000E+00  0.00000000000E+00  0.27534948764E+02  0.34032259020E+02  0.20000531256E+02 0.  0.
        -11    1    3    3    0    0 -0.88404799178E+01 -0.46745222947E+01  0.13781558596E+02  0.17027524819E+02  0.51100000000E-03 0. -1.
         11    1    3    3    0    0  0.88404799178E+01  0.46745222947E+01  0.13753390168E+02  0.17004734201E+02  0.51100000000E-03 0.  1.
<mgrwt>
<rscale>  0 0.20000531E+02</rscale>
<asrwt>0</asrwt>
<pdfrwt beam="1">  1        4 0.47359389E-02 0.20000531E+02</pdfrwt>
<pdfrwt beam="2">  1       -4 0.49979311E-03 0.20000531E+02</pdfrwt>
<totfact> 0.12249279E+06</totfact>
</mgrwt>
</event>
<event>
 5    1  0.1154861E-006  0.2000073E+02  0.7818608E-02  0.1745313E+00
          4   -1    0    0  501    0  0.00000000000E+00  0.00000000000E+00  0.75813909591E+00  0.16097126727E+01  0.14200000000E+01 0. -1.
         -4   -1    0    0    0  501 -0.00000000000E+00 -0.00000000000E+00 -0.83611171924E+02  0.83623229252E+02  0.14200000000E+01 0.  1.
       1023    2    1    2    0    0  0.00000000000E+00  0.00000000000E+00 -0.82853032828E+02  0.85232941924E+02  0.20000733494E+02 0.  0.
        -11    1    3    3    0    0 -0.78362910933E+01 -0.62128383389E+01 -0.41523364899E+02  0.42710615205E+02  0.51100000000E-03 0. -1.
         11    1    3    3    0    0  0.78362910933E+01  0.62128383389E+01 -0.41329667929E+02  0.42522326720E+02  0.51100000000E-03 0.  1.
<mgrwt>
<rscale>  0 0.20000733E+02</rscale>
<asrwt>0</asrwt>
<pdfrwt beam="1">  1        4 0.18307000E-03 0.20000733E+02</pdfrwt>
<pdfrwt beam="2">  1       -4 0.12929686E-01 0.20000733E+02</pdfrwt>
<totfact> 0.10242611E+06</totfact>
</mgrwt>
</event>
<event>
 5    1  0.1154861E-006  0.2000010E+02  0.7818608E-02  0.1745326E+00
          4   -1    0    0  501    0  0.00000000000E+00  0.00000000000E+00  0.90834577343E+01  0.91937807463E+01  0.14200000000E+01 0.  1.
         -4   -1    0    0    0  501 -0.00000000000E+00 -0.00000000000E+00 -0.10785534699E+02  0.10878610148E+02  0.14200000000E+01 0. -1.
       1023    2    1    2    0    0  0.00000000000E+00  0.00000000000E+00 -0.17020769648E+01  0.20072390894E+02  0.20000095255E+02 0.  0.
        -11    1    3    3    0    0 -0.57016536478E+01  0.82153035998E+01 -0.88089048673E+00  0.10038726805E+02  0.51100000000E-03 0.  1.
         11    1    3    3    0    0  0.57016536478E+01 -0.82153035998E+01 -0.82118647802E+00  0.10033664089E+02  0.51100000000E-03 0. -1.
<mgrwt>
<rscale>  0 0.20000095E+02</rscale>
<asrwt>0</asrwt>
<pdfrwt beam="1">  1        4 0.14131011E-02 0.20000095E+02</pdfrwt>
<pdfrwt beam="2">  1       -4 0.16749591E-02 0.20000095E+02</pdfrwt>
<totfact> 0.13009623E+06</totfact>
</mgrwt>
</event>
<event>
 5    1  0.1154861E-006  0.2000052E+02  0.7818608E-02  0.1745318E+00
          4   -1    0    0  501    0  0.00000000000E+00  0.00000000000E+00  0.64133041399E+02  0.64148759919E+02  0.14200000000E+01 0.  1.
         -4   -1    0    0    0  501 -0.00000000000E+00 -0.00000000000E+00 -0.12167721577E+01  0.18700092202E+01  0.14200000000E+01 0. -1.
       1023    2    1    2    0    0  0.00000000000E+00  0.00000000000E+00  0.62916269242E+02  0.66018769139E+02  0.20000523577E+02 0.  0.
        -11    1    3    3    0    0  0.21122322887E+01 -0.97746456256E+01  0.31446127505E+02  0.32997941719E+02  0.51100000000E-03 0. -1.
         11    1    3    3    0    0 -0.21122322887E+01  0.97746456256E+01  0.31470141737E+02  0.33020827420E+02  0.51100000000E-03 0.  1.
<mgrwt>
<rscale>  0 0.20000524E+02</rscale>
<asrwt>0</asrwt>
<pdfrwt beam="1">  1        4 0.99180765E-02 0.20000524E+02</pdfrwt>
<pdfrwt beam="2">  1       -4 0.23865392E-03 0.20000524E+02</pdfrwt>
<totfact> 0.10893079E+06</totfact>
</mgrwt>
</event>
<event>
 4    1  0.1154861E-006  0.2001672E+02  0.7818608E-02  0.1744996E+00
         -4   -1    0    0    0  501 -0.00000000000E+00  0.00000000000E+00  0.48912891397E+02  0.48933499209E+02  0.14200000000E+01 0.  1.
          4   -1    0    0  501    0  0.00000000000E+00 -0.00000000000E+00 -0.17780599328E+01  0.22754993133E+01  0.14200000000E+01 0. -1.
        -11    1    1    2    0    0  0.78000517881E+01 -0.62612270213E+01  0.22668264471E+02  0.24776884108E+02  0.51100000000E-03 0.  1.
         11    1    1    2    0    0 -0.78000517881E+01  0.62612270213E+01  0.24466566993E+02  0.26432114414E+02  0.51100000000E-03 0. -1.
<mgrwt>
<rscale>  0 0.20016723E+02</rscale>
<asrwt>0</asrwt>
<pdfrwt beam="2">  1        4 0.31339748E-03 0.20016723E+02</pdfrwt>
<pdfrwt beam="1">  1       -4 0.75649097E-02 0.20016723E+02</pdfrwt>
<totfact> 0.11450350E+06</totfact>
</mgrwt>
</event>
<event>
 5    1  0.1154861E-006  0.2000012E+02  0.7818608E-02  0.1745326E+00
         -4   -1    0    0    0  501 -0.00000000000E+00  0.00000000000E+00  0.31223186453E+02  0.31255459879E+02  0.14200000000E+01 0.  1.
          4   -1    0    0  501    0  0.00000000000E+00 -0.00000000000E+00 -0.30096940222E+01  0.33278608906E+01  0.14200000000E+01 0. -1.
       1023    2    1    2    0    0  0.00000000000E+00  0.00000000000E+00  0.28213492431E+02  0.34583320770E+02  0.20000123008E+02 0.  0.
        -11    1    3    3    0    0 -0.99913030206E+01  0.41791386813E+00  0.14143090265E+02  0.17321310301E+02  0.51100000000E-03 0.  1.
         11    1    3    3    0    0  0.99913030206E+01 -0.41791386813E+00  0.14070402166E+02  0.17262010468E+02  0.51100000000E-03 0. -1.
<mgrwt>
<rscale>  0 0.20000123E+02</rscale>
<asrwt>0</asrwt>
<pdfrwt beam="2">  1        4 0.48998679E-03 0.20000123E+02</pdfrwt>
<pdfrwt beam="1">  1       -4 0.48305242E-02 0.20000123E+02</pdfrwt>
<totfact> 0.12222415E+06</totfact>
</mgrwt>
</event>
<event>
 5    1  0.1154861E-006  0.2000064E+02  0.7818608E-02  0.1745315E+00
          4   -1    0    0  501    0  0.00000000000E+00  0.00000000000E+00  0.41404846417E+02  0.41429189068E+02  0.14200000000E+01 0.  1.
         -4   -1    0    0    0  501 -0.00000000000E+00 -0.00000000000E+00 -0.21793151887E+01  0.26011179695E+01  0.14200000000E+01 0. -1.
       1023    2    1    2    0    0  0.00000000000E+00  0.00000000000E+00  0.39225531228E+02  0.44030307037E+02  0.20000640931E+02 0.  0.
        -11    1    3    3    0    0 -0.81045024892E+01  0.58582637129E+01  0.19755347632E+02  0.22142176375E+02  0.51100000000E-03 0. -1.
         11    1    3    3    0    0  0.81045024892E+01 -0.58582637129E+01  0.19470183596E+02  0.21888130662E+02  0.51100000000E-03 0.  1.
<mgrwt>
<rscale>  0 0.20000641E+02</rscale>
<asrwt>0</asrwt>
<pdfrwt beam="1">  1        4 0.64042950E-02 0.20000641E+02</pdfrwt>
<pdfrwt beam="2">  1       -4 0.36959815E-03 0.20000641E+02</pdfrwt>
<totfact> 0.11778138E+06</totfact>
</mgrwt>
</event>
<event>
 4    1  0.1154861E-006  0.2003797E+02  0.7818608E-02  0.1744574E+00
          4   -1    0    0  501    0  0.00000000000E+00  0.00000000000E+00  0.19046860381E+02  0.19099719641E+02  0.14200000000E+01 0.  1.
         -4   -1    0    0    0  501 -0.00000000000E+00 -0.00000000000E+00 -0.51131065106E+01  0.53066239916E+01  0.14200000000E+01 0. -1.
        -11    1    1    2    0    0 -0.43059843451E+01  0.90288637968E+01  0.62798689435E+01  0.11810954104E+02  0.51100000000E-03 0.  1.
         11    1    1    2    0    0  0.43059843451E+01 -0.90288637968E+01  0.76538849264E+01  0.12595389528E+02  0.51100000000E-03 0. -1.
<mgrwt>
<rscale>  0 0.20037967E+02</rscale>
<asrwt>0</asrwt>
<pdfrwt beam="1">  1        4 0.29492382E-02 0.20037967E+02</pdfrwt>
<pdfrwt beam="2">  1       -4 0.80558385E-03 0.20037967E+02</pdfrwt>
<totfact> 0.12709662E+06</totfact>
</mgrwt>
</event>
<event>
 5    1  0.1191866E-006  0.2000123E+02  0.7818608E-02  0.1745304E+00
         -4   -1    0    0    0  501 -0.00000000000E+00  0.00000000000E+00  0.66099410068E+01  0.67607484877E+01  0.14200000000E+01 0.  1.
          4   -1    0    0  501    0  0.00000000000E+00 -0.00000000000E+00 -0.14774701156E+02  0.14842782564E+02  0.14200000000E+01 0. -1.
       1023    2    1    2    0    0  0.00000000000E+00  0.00000000000E+00 -0.81647601493E+01  0.21603531052E+02  0.20001231103E+02 0.  0.
        -11    1    3    3    0    0 -0.76227682677E+01 -0.64728309131E+01 -0.39847208589E+01  0.10764856556E+02  0.51100000000E-03 0. -1.
         11    1    3    3    0    0  0.76227682677E+01  0.64728309131E+01 -0.41800392904E+01  0.10838674496E+02  0.51100000000E-03 0.  1.
<mgrwt>
<rscale>  0 0.20001231E+02</rscale>
<asrwt>0</asrwt>
<pdfrwt beam="2">  1        4 0.22898685E-02 0.20001231E+02</pdfrwt>
<pdfrwt beam="1">  1       -4 0.10337516E-02 0.20001231E+02</pdfrwt>
<totfact> 0.12917690E+06</totfact>
</mgrwt>
</event>
<event>
 4    1  0.1154861E-006  0.2003098E+02  0.7818608E-02  0.1744713E+00
          4   -1    0    0  501    0  0.00000000000E+00  0.00000000000E+00  0.12986485763E+02  0.13063889637E+02  0.14200000000E+01 0.  1.
         -4   -1    0    0    0  501 -0.00000000000E+00 -0.00000000000E+00 -0.75575149206E+01  0.76897614902E+01  0.14200000000E+01 0. -1.
        -11    1    1    2    0    0 -0.80146253593E+01 -0.59944309446E+01  0.31058093201E+01  0.10479192421E+02  0.51100000000E-03 0.  1.
         11    1    1    2    0    0  0.80146253593E+01  0.59944309446E+01  0.23231615218E+01  0.10274458707E+02  0.51100000000E-03 0. -1.
<mgrwt>
<rscale>  0 0.20030984E+02</rscale>
<asrwt>0</asrwt>
<pdfrwt beam="1">  1        4 0.20140478E-02 0.20030984E+02</pdfrwt>
<pdfrwt beam="2">  1       -4 0.11788216E-02 0.20030984E+02</pdfrwt>
<totfact> 0.12928417E+06</totfact>
</mgrwt>
</event>
<event>
 5    1  0.1154861E-006  0.2000047E+02  0.7818608E-02  0.1745319E+00
         -4   -1    0    0    0  501 -0.00000000000E+00  0.00000000000E+00  0.16150322129E+01  0.21505183209E+01  0.14200000000E+01 0.  1.
          4   -1    0    0  501    0  0.00000000000E+00 -0.00000000000E+00 -0.52569157181E+02  0.52588332230E+02  0.14200000000E+01 0. -1.
       1023    2    1    2    0    0  0.00000000000E+00  0.00000000000E+00 -0.50954124968E+02  0.54738850551E+02  0.20000472703E+02 0.  0.
        -11    1    3    3    0    0  0.69339873869E+01  0.72058529171E+01 -0.25518522578E+02  0.27408018757E+02  0.51100000000E-03 0.  1.
         11    1    3    3    0    0 -0.69339873869E+01 -0.72058529171E+01 -0.25435602390E+02  0.27330831794E+02  0.51100000000E-03 0. -1.
<mgrwt>
<rscale>  0 0.20000473E+02</rscale>
<asrwt>0</asrwt>
<pdfrwt beam="2">  1        4 0.81302278E-02 0.20000473E+02</pdfrwt>
<pdfrwt beam="1">  1       -4 0.29113278E-03 0.20000473E+02</pdfrwt>
<totfact> 0.11324856E+06</totfact>
</mgrwt>
</event>
<event>
 5    1  0.1160912E-006  0.2000058E+02  0.7818608E-02  0.1745316E+00
         -4   -1    0    0    0  501 -0.00000000000E+00  0.00000000000E+00  0.11645540738E+02  0.11731795220E+02  0.14200000000E+01 0.  1.
          4   -1    0    0  501    0  0.00000000000E+00 -0.00000000000E+00 -0.84097988774E+01  0.85288403173E+01  0.14200000000E+01 0. -1.
       1023    2    1    2    0    0  0.00000000000E+00  0.00000000000E+00  0.32357418606E+01  0.20260635537E+02  0.20000583166E+02 0.  0.
        -11    1    3    3    0    0 -0.79506824646E+01  0.60654252626E+01  0.16742380698E+01  0.10139319930E+02  0.51100000000E-03 0. -1.
         11    1    3    3    0    0  0.79506824646E+01 -0.60654252626E+01  0.15615037908E+01  0.10121315607E+02  0.51100000000E-03 0.  1.
<mgrwt>
<rscale>  0 0.20000583E+02</rscale>
<asrwt>0</asrwt>
<pdfrwt beam="2">  1        4 0.13096072E-02 0.20000583E+02</pdfrwt>
<pdfrwt beam="1">  1       -4 0.18074136E-02 0.20000583E+02</pdfrwt>
<totfact> 0.12997757E+06</totfact>
</mgrwt>
</event>
<event>
 5    1  0.1154861E-006  0.2001156E+02  0.7818608E-02  0.1745098E+00
          4   -1    0    0  501    0  0.00000000000E+00  0.00000000000E+00  0.10086561908E+03  0.10087561406E+03  0.14200000000E+01 0. -1.
         -4   -1    0    0    0  501 -0.00000000000E+00 -0.00000000000E+00 -0.46941342593E+00  0.14955764656E+01  0.14200000000E+01 0.  1.
       1023    2    1    2    0    0  0.00000000000E+00  0.00000000000E+00  0.10039620566E+03  0.10237119053E+03  0.20011560167E+02 0.  0.
        -11    1    3    3    0    0 -0.79850239274E+01 -0.60251124554E+01  0.51376331699E+02  0.52341093285E+02  0.51100000000E-03 0. -1.
         11    1    3    3    0    0  0.79850239274E+01  0.60251124554E+01  0.49019873958E+02  0.50030097245E+02  0.51100000000E-03 0.  1.
<mgrwt>
<rscale>  0 0.20011560E+02</rscale>
<asrwt>0</asrwt>
<pdfrwt beam="1">  1        4 0.15597498E-01 0.20011560E+02</pdfrwt>
<pdfrwt beam="2">  1       -4 0.15192185E-03 0.20011560E+02</pdfrwt>
<totfact> 0.97230337E+05</totfact>
</mgrwt>
</event>
<event>
 5    1  0.1154861E-006  0.2000008E+02  0.7818608E-02  0.1745327E+00
          4   -1    0    0  501    0  0.00000000000E+00  0.00000000000E+00  0.61914801308E+02  0.61931082834E+02  0.14200000000E+01 0.  1.
         -4   -1    0    0    0  501 -0.00000000000E+00 -0.00000000000E+00 -0.12832611965E+01  0.19139381647E+01  0.14200000000E+01 0. -1.
       1023    2    1    2    0    0  0.00000000000E+00  0.00000000000E+00  0.60631540112E+02  0.63845020999E+02  0.20000076251E+02 0.  0.
        -11    1    3    3    0    0  0.30143713714E+01  0.95348940678E+01  0.30351116481E+02  0.31956077850E+02  0.51100000000E-03 0.  1.
         11    1    3    3    0    0 -0.30143713714E+01 -0.95348940678E+01  0.30280423631E+02  0.31888943149E+02  0.51100000000E-03 0. -1.
<mgrwt>
<rscale>  0 0.20000076E+02</rscale>
<asrwt>0</asrwt>
<pdfrwt beam="1">  1        4 0.95751200E-02 0.20000076E+02</pdfrwt>
<pdfrwt beam="2">  1       -4 0.24719084E-03 0.20000076E+02</pdfrwt>
<totfact> 0.10973574E+06</totfact>
</mgrwt>
</event>
<event>
 5    1  0.1156858E-006  0.2000211E+02  0.7818608E-02  0.1745286E+00
         -4   -1    0    0    0  501 -0.00000000000E+00  0.00000000000E+00  0.92259463721E+01  0.93345855002E+01  0.14200000000E+01 0.  1.
          4   -1    0    0  501    0  0.00000000000E+00 -0.00000000000E+00 -0.10621663855E+02  0.10716162702E+02  0.14200000000E+01 0. -1.
       1023    2    1    2    0    0  0.00000000000E+00  0.00000000000E+00 -0.13957174830E+01  0.20050748202E+02  0.20002111793E+02 0.  0.
        -11    1    3    3    0    0 -0.72361949485E+01 -0.69034272697E+01 -0.66180770151E+00  0.10022864615E+02  0.51100000000E-03 0. -1.
         11    1    3    3    0    0  0.72361949485E+01  0.69034272697E+01 -0.73390978147E+00  0.10027883587E+02  0.51100000000E-03 0.  1.
<mgrwt>
<rscale>  0 0.20002112E+02</rscale>
<asrwt>0</asrwt>
<pdfrwt beam="2">  1        4 0.16497281E-02 0.20002112E+02</pdfrwt>
<pdfrwt beam="1">  1       -4 0.14350024E-02 0.20002112E+02</pdfrwt>
<totfact> 0.13008228E+06</totfact>
</mgrwt>
</event>
<event>
 4    1  0.1154861E-006  0.2001958E+02  0.7818608E-02  0.1744939E+00
         -4   -1    0    0    0  501 -0.00000000000E+00  0.00000000000E+00  0.14581396349E+02  0.14650376087E+02  0.14200000000E+01 0. -1.
          4   -1    0    0  501    0  0.00000000000E+00 -0.00000000000E+00 -0.67118310898E+01  0.68603991559E+01  0.14200000000E+01 0.  1.
        -11    1    1    2    0    0 -0.92365737140E+01 -0.38573904520E+01  0.39839421625E+01  0.10773372290E+02  0.51100000000E-03 0. -1.
         11    1    1    2    0    0  0.92365737140E+01  0.38573904520E+01  0.38856230971E+01  0.10737402954E+02  0.51100000000E-03 0.  1.
<mgrwt>
<rscale>  0 0.20019575E+02</rscale>
<asrwt>0</asrwt>
<pdfrwt beam="2">  1        4 0.10493239E-02 0.20019575E+02</pdfrwt>
<pdfrwt beam="1">  1       -4 0.22600262E-02 0.20019575E+02</pdfrwt>
<totfact> 0.12898965E+06</totfact>
</mgrwt>
</event>
<event>
 5    1  0.1154861E-006  0.2000007E+02  0.7818608E-02  0.1745327E+00
         -4   -1    0    0    0  501 -0.00000000000E+00  0.00000000000E+00  0.28666757363E+01  0.31990982757E+01  0.14200000000E+01 0. -1.
          4   -1    0    0  501    0  0.00000000000E+00 -0.00000000000E+00 -0.32623409749E+02  0.32654299313E+02  0.14200000000E+01 0.  1.
       1023    2    1    2    0    0  0.00000000000E+00  0.00000000000E+00 -0.29756734012E+02  0.35853397589E+02  0.20000072489E+02 0.  0.
        -11    1    3    3    0    0 -0.98190064302E+01 -0.18941337712E+01 -0.14895804227E+02  0.17941170916E+02  0.51100000000E-03 0. -1.
         11    1    3    3    0    0  0.98190064302E+01  0.18941337712E+01 -0.14860929786E+02  0.17912226673E+02  0.51100000000E-03 0.  1.
<mgrwt>
<rscale>  0 0.20000072E+02</rscale>
<asrwt>0</asrwt>
<pdfrwt beam="2">  1        4 0.50469330E-02 0.20000072E+02</pdfrwt>
<pdfrwt beam="1">  1       -4 0.46897414E-03 0.20000072E+02</pdfrwt>
<totfact> 0.12160065E+06</totfact>
</mgrwt>
</event>
<event>
 5    1  0.1154861E-006  0.2000068E+02  0.7818608E-02  0.1745315E+00
         -4   -1    0    0    0  501 -0.00000000000E+00  0.00000000000E+00  0.22638277909E+01  0.26723241321E+01  0.14200000000E+01 0.  1.
          4   -1    0    0  501    0  0.00000000000E+00 -0.00000000000E+00 -0.40098045401E+02  0.40123180893E+02  0.14200000000E+01 0. -1.
       1023    2    1    2    0    0  0.00000000000E+00  0.00000000000E+00 -0.37834217610E+02  0.42795505025E+02  0.20000680693E+02 0.  0.
        -11    1    3    3    0    0 -0.31624146193E+01 -0.94870725102E+01 -0.18837170099E+02  0.21327081109E+02  0.51100000000E-03 0.  1.
         11    1    3    3    0    0  0.31624146193E+01  0.94870725102E+01 -0.18997047511E+02  0.21468423916E+02  0.51100000000E-03 0. -1.
<mgrwt>
<rscale>  0 0.20000681E+02</rscale>
<asrwt>0</asrwt>
<pdfrwt beam="2">  1        4 0.62022859E-02 0.20000681E+02</pdfrwt>
<pdfrwt beam="1">  1       -4 0.38163752E-03 0.20000681E+02</pdfrwt>
<totfact> 0.11833596E+06</totfact>
</mgrwt>
</event>
<event>
 5    1  0.1154861E-006  0.2000026E+02  0.7818608E-02  0.1745323E+00
         -4   -1    0    0    0  501 -0.00000000000E+00  0.00000000000E+00  0.12761591647E+02  0.12840351294E+02  0.14200000000E+01 0. -1.
          4   -1    0    0  501    0  0.00000000000E+00 -0.00000000000E+00 -0.76679625277E+01  0.77983363179E+01  0.14200000000E+01 0.  1.
       1023    2    1    2    0    0  0.00000000000E+00  0.00000000000E+00  0.50936291192E+01  0.20638687612E+02  0.20000259217E+02 0.  0.
        -11    1    3    3    0    0  0.37515277161E+01  0.92697398350E+01  0.25711275066E+01  0.10325344243E+02  0.51100000000E-03 0.  1.
         11    1    3    3    0    0 -0.37515277161E+01 -0.92697398350E+01  0.25225016126E+01  0.10313343370E+02  0.51100000000E-03 0. -1.
<mgrwt>
<rscale>  0 0.20000259E+02</rscale>
<asrwt>0</asrwt>
<pdfrwt beam="2">  1        4 0.11957737E-02 0.20000259E+02</pdfrwt>
<pdfrwt beam="1">  1       -4 0.19794090E-02 0.20000259E+02</pdfrwt>
<totfact> 0.12975777E+06</totfact>
</mgrwt>
</event>
<event>
 5    1  0.1154861E-006  0.2000119E+02  0.7818608E-02  0.1745304E+00
         -4   -1    0    0    0  501 -0.00000000000E+00  0.00000000000E+00  0.57888979045E+00  0.15334645055E+01  0.14200000000E+01 0.  1.
          4   -1    0    0  501    0  0.00000000000E+00 -0.00000000000E+00 -0.93730009574E+02  0.93740765384E+02  0.14200000000E+01 0. -1.
       1023    2    1    2    0    0  0.00000000000E+00  0.00000000000E+00 -0.93151119783E+02  0.95274229889E+02  0.20001194066E+02 0.  0.
        -11    1    3    3    0    0  0.32344986792E+01 -0.94627611608E+01 -0.46203211551E+02  0.47273064089E+02  0.51100000000E-03 0. -1.
         11    1    3    3    0    0 -0.32344986792E+01  0.94627611608E+01 -0.46947908233E+02  0.48001165800E+02  0.51100000000E-03 0.  1.
<mgrwt>
<rscale>  0 0.20001194E+02</rscale>
<asrwt>0</asrwt>
<pdfrwt beam="2">  1        4 0.14494251E-01 0.20001194E+02</pdfrwt>
<pdfrwt beam="1">  1       -4 0.16331624E-03 0.20001194E+02</pdfrwt>
<totfact> 0.99367507E+05</totfact>
</mgrwt>
</event>
<event>
 5    1  0.1154861E-006  0.2000016E+02  0.7818608E-02  0.1745325E+00
         -4   -1    0    0    0  501 -0.00000000000E+00  0.00000000000E+00  0.47627232947E+02  0.47648396806E+02  0.14200000000E+01 0.  1.
          4   -1    0    0  501    0  0.00000000000E+00 -0.00000000000E+00 -0.18353992164E+01  0.23205797301E+01  0.14200000000E+01 0. -1.
       1023    2    1    2    0    0  0.00000000000E+00  0.00000000000E+00  0.45791833730E+02  0.49968976536E+02  0.20000164491E+02 0.  0.
        -11    1    3    3    0    0 -0.30997559417E+01 -0.95075308411E+01  0.22905613077E+02  0.24993373928E+02  0.51100000000E-03 0.  1.
         11    1    3    3    0    0  0.30997559417E+01  0.95075308411E+01  0.22886220653E+02  0.24975602608E+02  0.51100000000E-03 0. -1.
<mgrwt>
<rscale>  0 0.20000164E+02</rscale>
<asrwt>0</asrwt>
<pdfrwt beam="2">  1        4 0.32131867E-03 0.20000164E+02</pdfrwt>
<pdfrwt beam="1">  1       -4 0.73662163E-02 0.20000164E+02</pdfrwt>
<totfact> 0.11521330E+06</totfact>
</mgrwt>
</event>
<event>
 5    1  0.1154861E-006  0.2000006E+02  0.7818608E-02  0.1745327E+00
         -4   -1    0    0    0  501 -0.00000000000E+00  0.00000000000E+00  0.23221699791E+02  0.23265075568E+02  0.14200000000E+01 0.  1.
          4   -1    0    0  501    0  0.00000000000E+00 -0.00000000000E+00 -0.41404738942E+01  0.43772050521E+01  0.14200000000E+01 0. -1.
       1023    2    1    2    0    0  0.00000000000E+00  0.00000000000E+00  0.19081225896E+02  0.27642280620E+02  0.20000062404E+02 0.  0.
        -11    1    3    3    0    0 -0.49945418961E+01 -0.86634292467E+01  0.95226608126E+01  0.13808748107E+02  0.51100000000E-03 0.  1.
         11    1    3    3    0    0  0.49945418961E+01  0.86634292467E+01  0.95585650838E+01  0.13833532513E+02  0.51100000000E-03 0. -1.
<mgrwt>
<rscale>  0 0.20000062E+02</rscale>
<asrwt>0</asrwt>
<pdfrwt beam="2">  1        4 0.65854267E-03 0.20000062E+02</pdfrwt>
<pdfrwt beam="1">  1       -4 0.35941159E-02 0.20000062E+02</pdfrwt>
<totfact> 0.12580688E+06</totfact>
</mgrwt>
</event>
<event>
 5    1  0.1154861E-006  0.2000502E+02  0.7818608E-02  0.1745228E+00
         -4   -1    0    0    0  501 -0.00000000000E+00  0.00000000000E+00  0.15119792868E+02  0.15186327284E+02  0.14200000000E+01 0.  1.
          4   -1    0    0  501    0  0.00000000000E+00 -0.00000000000E+00 -0.64588068687E+01  0.66130617846E+01  0.14200000000E+01 0. -1.
       1023    2    1    2    0    0  0.00000000000E+00  0.00000000000E+00  0.86609859992E+01  0.21799389068E+02  0.20005016503E+02 0.  0.
        -11    1    3    3    0    0 -0.54916196700E+00  0.99872024562E+01  0.42583810332E+01  0.10871044156E+02  0.51100000000E-03 0. -1.
         11    1    3    3    0    0  0.54916196700E+00 -0.99872024562E+01  0.44026049660E+01  0.10928344912E+02  0.51100000000E-03 0.  1.
<mgrwt>
<rscale>  0 0.20005017E+02</rscale>
<asrwt>0</asrwt>
<pdfrwt beam="2">  1        4 0.10106464E-02 0.20005017E+02</pdfrwt>
<pdfrwt beam="1">  1       -4 0.23431057E-02 0.20005017E+02</pdfrwt>
<totfact> 0.12901287E+06</totfact>
</mgrwt>
</event>
<event>
 5    1  0.1154861E-006  0.2000764E+02  0.7818608E-02  0.1745176E+00
         -4   -1    0    0    0  501 -0.00000000000E+00  0.00000000000E+00  0.22428116142E+01  0.26545440168E+01  0.14200000000E+01 0. -1.
          4   -1    0    0  501    0  0.00000000000E+00 -0.00000000000E+00 -0.40444316810E+02  0.40469237233E+02  0.14200000000E+01 0.  1.
       1023    2    1    2    0    0  0.00000000000E+00  0.00000000000E+00 -0.38201505196E+02  0.43123781250E+02  0.20007636294E+02 0.  0.
        -11    1    3    3    0    0  0.58302975656E+01 -0.81264869208E+01 -0.19553983997E+02  0.21963388850E+02  0.51100000000E-03 0. -1.
         11    1    3    3    0    0 -0.58302975656E+01  0.81264869208E+01 -0.18647521199E+02  0.21160392400E+02  0.51100000000E-03 0.  1.
<mgrwt>
<rscale>  0 0.20007636E+02</rscale>
<asrwt>0</asrwt>
<pdfrwt beam="2">  1        4 0.62557908E-02 0.20007636E+02</pdfrwt>
<pdfrwt beam="1">  1       -4 0.37863665E-03 0.20007636E+02</pdfrwt>
<totfact> 0.11810463E+06</totfact>
</mgrwt>
</event>
<event>
 4    1  0.4946756E-006  0.2107853E+02  0.7818608E-02  0.1724693E+00
         -4   -1    0    0    0  501 -0.00000000000E+00  0.00000000000E+00  0.83510000283E+00  0.16473591031E+01  0.14200000000E+01 0.  1.
          4   -1    0    0  501    0  0.00000000000E+00 -0.00000000000E+00 -0.88668977472E+02  0.88680347124E+02  0.14200000000E+01 0. -1.
        -11    1    1    2    0    0 -0.87681887099E+01 -0.55911642470E+01 -0.36576855246E+02  0.38026419643E+02  0.51100000000E-03 0. -1.
         11    1    1    2    0    0  0.87681887099E+01  0.55911642470E+01 -0.51257022223E+02  0.52301286584E+02  0.51100000000E-03 0.  1.
<mgrwt>
<rscale>  0 0.21078531E+02</rscale>
<asrwt>0</asrwt>
<pdfrwt beam="2">  1        4 0.13704732E-01 0.21078531E+02</pdfrwt>
<pdfrwt beam="1">  1       -4 0.19183305E-03 0.21078531E+02</pdfrwt>
<totfact> 0.90706717E+05</totfact>
</mgrwt>
</event>
<event>
 5    1  0.1155947E-006  0.2000062E+02  0.7818608E-02  0.1745316E+00
          4   -1    0    0  501    0  0.00000000000E+00  0.00000000000E+00  0.16260313510E+02  0.16322199467E+02  0.14200000000E+01 0.  1.
         -4   -1    0    0    0  501 -0.00000000000E+00 -0.00000000000E+00 -0.59936428770E+01  0.61595580147E+01  0.14200000000E+01 0. -1.
       1023    2    1    2    0    0  0.00000000000E+00  0.00000000000E+00  0.10266670633E+02  0.22481757482E+02  0.20000622330E+02 0.  0.
        -11    1    3    3    0    0 -0.59813727127E+01 -0.80142495927E+01  0.50942823557E+01  0.11223044553E+02  0.51100000000E-03 0.  1.
         11    1    3    3    0    0  0.59813727127E+01  0.80142495927E+01  0.51723882776E+01  0.11258712929E+02  0.51100000000E-03 0. -1.
<mgrwt>
<rscale>  0 0.20000622E+02</rscale>
<asrwt>0</asrwt>
<pdfrwt beam="1">  1        4 0.25191098E-02 0.20000622E+02</pdfrwt>
<pdfrwt beam="2">  1       -4 0.93962209E-03 0.20000622E+02</pdfrwt>
<totfact> 0.12867535E+06</totfact>
</mgrwt>
</event>
<event>
 4    1  0.1154861E-006  0.2001766E+02  0.7818608E-02  0.1744977E+00
          4   -1    0    0  501    0  0.00000000000E+00  0.00000000000E+00  0.47089934086E+00  0.14960435118E+01  0.14200000000E+01 0. -1.
         -4   -1    0    0    0  501 -0.00000000000E+00 -0.00000000000E+00 -0.10082749255E+03  0.10083749131E+03  0.14200000000E+01 0.  1.
        -11    1    1    2    0    0  0.69425248393E+01  0.72042209882E+01 -0.51598574482E+02  0.52559607495E+02  0.51100000000E-03 0. -1.
         11    1    1    2    0    0 -0.69425248393E+01 -0.72042209882E+01 -0.48758018728E+02  0.49773927329E+02  0.51100000000E-03 0.  1.
<mgrwt>
<rscale>  0 0.20017656E+02</rscale>
<asrwt>0</asrwt>
<pdfrwt beam="1">  1        4 0.15207251E-03 0.20017656E+02</pdfrwt>
<pdfrwt beam="2">  1       -4 0.15591540E-01 0.20017656E+02</pdfrwt>
<totfact> 0.97181854E+05</totfact>
</mgrwt>
</event>
<event>
 5    1  0.1154861E-006  0.2000039E+02  0.7818608E-02  0.1745320E+00
         -4   -1    0    0    0  501 -0.00000000000E+00  0.00000000000E+00  0.20773208321E+02  0.20821685425E+02  0.14200000000E+01 0.  1.
          4   -1    0    0  501    0  0.00000000000E+00 -0.00000000000E+00 -0.46539648646E+01  0.48657773234E+01  0.14200000000E+01 0. -1.
       1023    2    1    2    0    0  0.00000000000E+00  0.00000000000E+00  0.16119243457E+02  0.25687462749E+02  0.20000393318E+02 0.  0.
        -11    1    3    3    0    0 -0.84873550862E+01 -0.52884329408E+01  0.81043647088E+01  0.12871808223E+02  0.51100000000E-03 0.  1.
         11    1    3    3    0    0  0.84873550862E+01  0.52884329408E+01  0.80148787478E+01  0.12815654526E+02  0.51100000000E-03 0. -1.
<mgrwt>
<rscale>  0 0.20000393E+02</rscale>
<asrwt>0</asrwt>
<pdfrwt beam="2">  1        4 0.73601688E-03 0.20000393E+02</pdfrwt>
<pdfrwt beam="1">  1       -4 0.32159004E-02 0.20000393E+02</pdfrwt>
<totfact> 0.12686901E+06</totfact>
</mgrwt>
</event>
<event>
 5    1  0.1174641E-006  0.2000131E+02  0.7818608E-02  0.1745302E+00
         -4   -1    0    0    0  501 -0.00000000000E+00  0.00000000000E+00  0.52351227563E+02  0.52370482405E+02  0.14200000000E+01 0.  1.
          4   -1    0    0  501    0  0.00000000000E+00 -0.00000000000E+00 -0.16241597130E+01  0.21573814622E+01  0.14200000000E+01 0. -1.
       1023    2    1    2    0    0  0.00000000000E+00  0.00000000000E+00  0.50727067850E+02  0.54527863867E+02  0.20001313089E+02 0.  0.
        -11    1    3    3    0    0 -0.30406770241E+00 -0.99960325653E+01  0.25356402641E+02  0.27257297727E+02  0.51100000000E-03 0. -1.
         11    1    3    3    0    0  0.30406770241E+00  0.99960325653E+01  0.25370665208E+02  0.27270566140E+02  0.51100000000E-03 0.  1.
<mgrwt>
<rscale>  0 0.20001313E+02</rscale>
<asrwt>0</asrwt>
<pdfrwt beam="2">  1        4 0.29236893E-03 0.20001313E+02</pdfrwt>
<pdfrwt beam="1">  1       -4 0.80965329E-02 0.20001313E+02</pdfrwt>
<totfact> 0.11332386E+06</totfact>
</mgrwt>
</event>
<event>
 5    1  0.1185820E-006  0.2000088E+02  0.7818608E-02  0.1745311E+00
          4   -1    0    0  501    0  0.00000000000E+00  0.00000000000E+00  0.57026661192E+01  0.58768019251E+01  0.14200000000E+01 0.  1.
         -4   -1    0    0    0  501 -0.00000000000E+00 -0.00000000000E+00 -0.17069403906E+02  0.17128366814E+02  0.14200000000E+01 0. -1.
       1023    2    1    2    0    0  0.00000000000E+00  0.00000000000E+00 -0.11366737787E+02  0.23005168739E+02  0.20000876501E+02 0.  0.
        -11    1    3    3    0    0  0.92159583876E+00 -0.99575344526E+01 -0.55875925977E+01  0.11455261785E+02  0.51100000000E-03 0.  1.
         11    1    3    3    0    0 -0.92159583876E+00  0.99575344526E+01 -0.57791451894E+01  0.11549906954E+02  0.51100000000E-03 0. -1.
<mgrwt>
<rscale>  0 0.20000877E+02</rscale>
<asrwt>0</asrwt>
<pdfrwt beam="1">  1        4 0.89526393E-03 0.20000877E+02</pdfrwt>
<pdfrwt beam="2">  1       -4 0.26439928E-02 0.20000877E+02</pdfrwt>
<totfact> 0.12837134E+06</totfact>
</mgrwt>
</event>
<event>
 5    1  0.1154861E-006  0.2000039E+02  0.7818608E-02  0.1745320E+00
          4   -1    0    0  501    0  0.00000000000E+00  0.00000000000E+00  0.18238298130E+01  0.23114400677E+01  0.14200000000E+01 0.  1.
         -4   -1    0    0    0  501 -0.00000000000E+00 -0.00000000000E+00 -0.47866966675E+02  0.47888024586E+02  0.14200000000E+01 0. -1.
       1023    2    1    2    0    0  0.00000000000E+00  0.00000000000E+00 -0.46043136862E+02  0.50199464653E+02  0.20000394980E+02 0.  0.
        -11    1    3    3    0    0  0.80971584780E+01  0.58685527559E+01 -0.23001692993E+02  0.25081502501E+02  0.51100000000E-03 0. -1.
         11    1    3    3    0    0 -0.80971584780E+01 -0.58685527559E+01 -0.23041443869E+02  0.25117962153E+02  0.51100000000E-03 0.  1.
<mgrwt>
<rscale>  0 0.20000395E+02</rscale>
<asrwt>0</asrwt>
<pdfrwt beam="1">  1        4 0.31971756E-03 0.20000395E+02</pdfrwt>
<pdfrwt beam="2">  1       -4 0.74032762E-02 0.20000395E+02</pdfrwt>
<totfact> 0.11511378E+06</totfact>
</mgrwt>
</event>
<event>
 5    1  0.1154861E-006  0.2000043E+02  0.7818608E-02  0.1745319E+00
         -4   -1    0    0    0  501 -0.00000000000E+00  0.00000000000E+00  0.30568031569E+02  0.30600995965E+02  0.14200000000E+01 0. -1.
          4   -1    0    0  501    0  0.00000000000E+00 -0.00000000000E+00 -0.30809781932E+01  0.33924661571E+01  0.14200000000E+01 0.  1.
       1023    2    1    2    0    0  0.00000000000E+00  0.00000000000E+00  0.27487053376E+02  0.33993462122E+02  0.20000434088E+02 0.  0.
        -11    1    3    3    0    0 -0.98453458218E+01 -0.17528430020E+01  0.13798541555E+02  0.17041215985E+02  0.51100000000E-03 0. -1.
         11    1    3    3    0    0  0.98453458218E+01  0.17528430020E+01  0.13688511821E+02  0.16952246137E+02  0.51100000000E-03 0.  1.
<mgrwt>
<rscale>  0 0.20000434E+02</rscale>
<asrwt>0</asrwt>
<pdfrwt beam="2">  1        4 0.50049299E-03 0.20000434E+02</pdfrwt>
<pdfrwt beam="1">  1       -4 0.47292704E-02 0.20000434E+02</pdfrwt>
<totfact> 0.12251334E+06</totfact>
</mgrwt>
</event>
<event>
 5    1  0.1154861E-006  0.2000202E+02  0.7818608E-02  0.1745288E+00
         -4   -1    0    0    0  501 -0.00000000000E+00  0.00000000000E+00  0.55605558662E+02  0.55623686988E+02  0.14200000000E+01 0. -1.
          4   -1    0    0  501    0  0.00000000000E+00 -0.00000000000E+00 -0.14971186344E+01  0.20634350499E+01  0.14200000000E+01 0.  1.
       1023    2    1    2    0    0  0.00000000000E+00  0.00000000000E+00  0.54108440028E+02  0.57687122038E+02  0.20002019067E+02 0.  0.
        -11    1    3    3    0    0  0.37692210135E+01  0.92634602562E+01  0.26943701077E+02  0.28739898242E+02  0.51100000000E-03 0.  1.
         11    1    3    3    0    0 -0.37692210135E+01 -0.92634602562E+01  0.27164738951E+02  0.28947223796E+02  0.51100000000E-03 0. -1.
<mgrwt>
<rscale>  0 0.20002019E+02</rscale>
<asrwt>0</asrwt>
<pdfrwt beam="2">  1        4 0.27528326E-03 0.20002019E+02</pdfrwt>
<pdfrwt beam="1">  1       -4 0.85996579E-02 0.20002019E+02</pdfrwt>
<totfact> 0.11206186E+06</totfact>
</mgrwt>
</event>
<event>
 5    1  0.1154861E-006  0.2000281E+02  0.7818608E-02  0.1745272E+00
         -4   -1    0    0    0  501 -0.00000000000E+00  0.00000000000E+00  0.36192254172E+02  0.36220100249E+02  0.14200000000E+01 0.  1.
          4   -1    0    0  501    0  0.00000000000E+00 -0.00000000000E+00 -0.25504925699E+01  0.29191458253E+01  0.14200000000E+01 0. -1.
       1023    2    1    2    0    0  0.00000000000E+00  0.00000000000E+00  0.33641761602E+02  0.39139246074E+02  0.20002811292E+02 0.  0.
        -11    1    3    3    0    0  0.31062260121E+01  0.95068023864E+01  0.16794412730E+02  0.19546872662E+02  0.51100000000E-03 0. -1.
         11    1    3    3    0    0 -0.31062260121E+01 -0.95068023864E+01  0.16847348873E+02  0.19592373413E+02  0.51100000000E-03 0.  1.
<mgrwt>
<rscale>  0 0.20002811E+02</rscale>
<asrwt>0</asrwt>
<pdfrwt beam="2">  1        4 0.42288339E-03 0.20002811E+02</pdfrwt>
<pdfrwt beam="1">  1       -4 0.55985395E-02 0.20002811E+02</pdfrwt>
<totfact> 0.11999447E+06</totfact>
</mgrwt>
</event>
<event>
 5    1  0.1154861E-006  0.2000436E+02  0.7818608E-02  0.1745241E+00
          4   -1    0    0  501    0  0.00000000000E+00  0.00000000000E+00  0.42174474929E+02  0.42198373613E+02  0.14200000000E+01 0.  1.
         -4   -1    0    0    0  501 -0.00000000000E+00 -0.00000000000E+00 -0.21327665981E+01  0.25622438139E+01  0.14200000000E+01 0. -1.
       1023    2    1    2    0    0  0.00000000000E+00  0.00000000000E+00  0.40041708331E+02  0.44760617427E+02  0.20004361183E+02 0.  0.
        -11    1    3    3    0    0  0.93098928494E+01 -0.36546404547E+01  0.20277095354E+02  0.22609535554E+02  0.51100000000E-03 0.  1.
         11    1    3    3    0    0 -0.93098928494E+01  0.36546404547E+01  0.19764612978E+02  0.22151081873E+02  0.51100000000E-03 0. -1.
<mgrwt>
<rscale>  0 0.20004361E+02</rscale>
<asrwt>0</asrwt>
<pdfrwt beam="1">  1        4 0.65232556E-02 0.20004361E+02</pdfrwt>
<pdfrwt beam="2">  1       -4 0.36299302E-03 0.20004361E+02</pdfrwt>
<totfact> 0.11741231E+06</totfact>
</mgrwt>
</event>
<event>
 5    1  0.1154861E-006  0.2000316E+02  0.7818608E-02  0.1745265E+00
          4   -1    0    0  501    0  0.00000000000E+00  0.00000000000E+00  0.10780391421E+03  0.10781326597E+03  0.14200000000E+01 0. -1.
         -4   -1    0    0    0  501 -0.00000000000E+00 -0.00000000000E+00 -0.36965061087E+00  0.14673246315E+01  0.14200000000E+01 0.  1.
       1023    2    1    2    0    0  0.00000000000E+00  0.00000000000E+00  0.10743426360E+03  0.10928059061E+03  0.20003161925E+02 0.  0.
        -11    1    3    3    0    0  0.79792065279E+01  0.60302276826E+01  0.53632713625E+02  0.54557303396E+02  0.51100000000E-03 0. -1.
         11    1    3    3    0    0 -0.79792065279E+01 -0.60302276826E+01  0.53801549978E+02  0.54723287209E+02  0.51100000000E-03 0.  1.
<mgrwt>
<rscale>  0 0.20003162E+02</rscale>
<asrwt>0</asrwt>
<pdfrwt beam="1">  1        4 0.16670361E-01 0.20003162E+02</pdfrwt>
<pdfrwt beam="2">  1       -4 0.14202526E-03 0.20003162E+02</pdfrwt>
<totfact> 0.95415812E+05</totfact>
</mgrwt>
</event>
<event>
 5    1  0.1154861E-006  0.2000078E+02  0.7818608E-02  0.1745313E+00
          4   -1    0    0  501    0  0.00000000000E+00  0.00000000000E+00  0.48199770282E+00  0.14995738680E+01  0.14200000000E+01 0.  1.
         -4   -1    0    0    0  501 -0.00000000000E+00 -0.00000000000E+00 -0.99912630772E+02  0.99922721079E+02  0.14200000000E+01 0. -1.
       1023    2    1    2    0    0  0.00000000000E+00  0.00000000000E+00 -0.99430633070E+02  0.10142229495E+03  0.20000777978E+02 0.  0.
        -11    1    3    3    0    0 -0.46848138230E+01  0.88351563915E+01 -0.49804692994E+02  0.50798768819E+02  0.51100000000E-03 0. -1.
         11    1    3    3    0    0  0.46848138230E+01 -0.88351563915E+01 -0.49625940076E+02  0.50623526128E+02  0.51100000000E-03 0.  1.
<mgrwt>
<rscale>  0 0.20000778E+02</rscale>
<asrwt>0</asrwt>
<pdfrwt beam="1">  1        4 0.15320484E-03 0.20000778E+02</pdfrwt>
<pdfrwt beam="2">  1       -4 0.15450217E-01 0.20000778E+02</pdfrwt>
<totfact> 0.97601799E+05</totfact>
</mgrwt>
</event>
<event>
 5    1  0.1154861E-006  0.2000657E+02  0.7818608E-02  0.1745197E+00
         -4   -1    0    0    0  501 -0.00000000000E+00  0.00000000000E+00  0.57663058312E+01  0.59385758342E+01  0.14200000000E+01 0.  1.
          4   -1    0    0  501    0  0.00000000000E+00 -0.00000000000E+00 -0.16895621515E+02  0.16955188775E+02  0.14200000000E+01 0. -1.
       1023    2    1    2    0    0  0.00000000000E+00  0.00000000000E+00 -0.11129315684E+02  0.22893764609E+02  0.20006568681E+02 0.  0.
        -11    1    3    3    0    0 -0.26467895468E+01  0.96456252328E+01 -0.57348348143E+01  0.11529610212E+02  0.51100000000E-03 0.  1.
         11    1    3    3    0    0  0.26467895468E+01 -0.96456252328E+01 -0.53944808697E+01  0.11364154397E+02  0.51100000000E-03 0. -1.
<mgrwt>
<rscale>  0 0.20006569E+02</rscale>
<asrwt>0</asrwt>
<pdfrwt beam="2">  1        4 0.26171600E-02 0.20006569E+02</pdfrwt>
<pdfrwt beam="1">  1       -4 0.90495761E-03 0.20006569E+02</pdfrwt>
<totfact> 0.12836066E+06</totfact>
</mgrwt>
</event>
<event>
 5    1  0.1154861E-006  0.2000028E+02  0.7818608E-02  0.1745322E+00
          4   -1    0    0  501    0  0.00000000000E+00  0.00000000000E+00  0.13764064768E+01  0.19775982376E+01  0.14200000000E+01 0.  1.
         -4   -1    0    0    0  501 -0.00000000000E+00 -0.00000000000E+00 -0.59020638881E+02  0.59037718570E+02  0.14200000000E+01 0. -1.
       1023    2    1    2    0    0  0.00000000000E+00  0.00000000000E+00 -0.57644232404E+02  0.61015316807E+02  0.20000283889E+02 0.  0.
        -11    1    3    3    0    0 -0.91374096205E+01 -0.40632787137E+01 -0.28765028545E+02  0.30453724828E+02  0.51100000000E-03 0.  1.
         11    1    3    3    0    0  0.91374096205E+01  0.40632787137E+01 -0.28879203859E+02  0.30561591979E+02  0.51100000000E-03 0. -1.
<mgrwt>
<rscale>  0 0.20000284E+02</rscale>
<asrwt>0</asrwt>
<pdfrwt beam="1">  1        4 0.25931423E-03 0.20000284E+02</pdfrwt>
<pdfrwt beam="2">  1       -4 0.91276561E-02 0.20000284E+02</pdfrwt>
<totfact> 0.11079728E+06</totfact>
</mgrwt>
</event>
<event>
 5    1  0.1154861E-006  0.2000032E+02  0.7818608E-02  0.1745322E+00
          4   -1    0    0  501    0  0.00000000000E+00  0.00000000000E+00  0.79914823947E+02  0.79927438883E+02  0.14200000000E+01 0. -1.
         -4   -1    0    0    0  501 -0.00000000000E+00 -0.00000000000E+00 -0.83164365197E+00  0.16456096633E+01  0.14200000000E+01 0.  1.
       1023    2    1    2    0    0  0.00000000000E+00  0.00000000000E+00  0.79083180295E+02  0.81573048546E+02  0.20000321088E+02 0.  0.
        -11    1    3    3    0    0  0.99880306626E+01 -0.49109035944E+00  0.39687760221E+02  0.40928232772E+02  0.51100000000E-03 0. -1.
         11    1    3    3    0    0 -0.99880306626E+01  0.49109035944E+00  0.39395420074E+02  0.40644815774E+02  0.51100000000E-03 0.  1.
<mgrwt>
<rscale>  0 0.20000321E+02</rscale>
<asrwt>0</asrwt>
<pdfrwt beam="1">  1        4 0.12358170E-01 0.20000321E+02</pdfrwt>
<pdfrwt beam="2">  1       -4 0.19152835E-03 0.20000321E+02</pdfrwt>
<totfact> 0.10359710E+06</totfact>
</mgrwt>
</event>
<event>
 5    1  0.1221975E-006  0.2000115E+02  0.7818608E-02  0.1745305E+00
          4   -1    0    0  501    0  0.00000000000E+00  0.00000000000E+00  0.53144676599E+01  0.55009059716E+01  0.14200000000E+01 0.  1.
         -4   -1    0    0    0  501 -0.00000000000E+00 -0.00000000000E+00 -0.18279874922E+02  0.18334945518E+02  0.14200000000E+01 0. -1.
       1023    2    1    2    0    0  0.00000000000E+00  0.00000000000E+00 -0.12965407262E+02  0.23835851490E+02  0.20001150736E+02 0.  0.
        -11    1    3    3    0    0 -0.30000990566E+00  0.99960708122E+01 -0.64727468365E+01  0.11912509790E+02  0.51100000000E-03 0. -1.
         11    1    3    3    0    0  0.30000990566E+00 -0.99960708122E+01 -0.64926604251E+01  0.11923341700E+02  0.51100000000E-03 0.  1.
<mgrwt>
<rscale>  0 0.20001151E+02</rscale>
<asrwt>0</asrwt>
<pdfrwt beam="1">  1        4 0.83618803E-03 0.20001151E+02</pdfrwt>
<pdfrwt beam="2">  1       -4 0.28308660E-02 0.20001151E+02</pdfrwt>
<totfact> 0.12789531E+06</totfact>
</mgrwt>
</event>
<event>
 5    1  0.1174572E-006  0.2000157E+02  0.7818608E-02  0.1745297E+00
          4   -1    0    0  501    0  0.00000000000E+00  0.00000000000E+00  0.13869808498E+02  0.13942309270E+02  0.14200000000E+01 0. -1.
         -4   -1    0    0    0  501 -0.00000000000E+00 -0.00000000000E+00 -0.70487489048E+01  0.71903589009E+01  0.14200000000E+01 0.  1.
       1023    2    1    2    0    0  0.00000000000E+00  0.00000000000E+00  0.68210595933E+01  0.21132668171E+02  0.20001570189E+02 0.  0.
        -11    1    3    3    0    0  0.86709865783E+01  0.49829232666E+01  0.34242944124E+01  0.10570776935E+02  0.51100000000E-03 0.  1.
         11    1    3    3    0    0 -0.86709865783E+01 -0.49829232666E+01  0.33967651810E+01  0.10561891236E+02  0.51100000000E-03 0. -1.
<mgrwt>
<rscale>  0 0.20001570E+02</rscale>
<asrwt>0</asrwt>
<pdfrwt beam="1">  1        4 0.21502867E-02 0.20001570E+02</pdfrwt>
<pdfrwt beam="2">  1       -4 0.11008930E-02 0.20001570E+02</pdfrwt>
<totfact> 0.12944855E+06</totfact>
</mgrwt>
</event>
<event>
 5    1  0.1191337E-006  0.2000113E+02  0.7818608E-02  0.1745306E+00
         -4   -1    0    0    0  501 -0.00000000000E+00  0.00000000000E+00  0.38862303441E+02  0.38888237665E+02  0.14200000000E+01 0. -1.
          4   -1    0    0  501    0  0.00000000000E+00 -0.00000000000E+00 -0.23486705171E+01  0.27445679438E+01  0.14200000000E+01 0.  1.
       1023    2    1    2    0    0  0.00000000000E+00  0.00000000000E+00  0.36513632924E+02  0.41632805609E+02  0.20001127808E+02 0.  0.
        -11    1    3    3    0    0 -0.32857828281E+01 -0.94452739280E+01  0.18342886204E+02  0.20891889405E+02  0.51100000000E-03 0.  1.
         11    1    3    3    0    0  0.32857828281E+01  0.94452739280E+01  0.18170746720E+02  0.20740916204E+02  0.51100000000E-03 0. -1.
<mgrwt>
<rscale>  0 0.20001128E+02</rscale>
<asrwt>0</asrwt>
<pdfrwt beam="2">  1        4 0.39378252E-03 0.20001128E+02</pdfrwt>
<pdfrwt beam="1">  1       -4 0.60112644E-02 0.20001128E+02</pdfrwt>
<totfact> 0.11885926E+06</totfact>
</mgrwt>
</event>
<event>
 5    1  0.1154861E-006  0.2000660E+02  0.7818608E-02  0.1745197E+00
          4   -1    0    0  501    0  0.00000000000E+00  0.00000000000E+00  0.36642084654E+01  0.39297358280E+01  0.14200000000E+01 0. -1.
         -4   -1    0    0    0  501 -0.00000000000E+00 -0.00000000000E+00 -0.26068646156E+02  0.26107292323E+02  0.14200000000E+01 0.  1.
       1023    2    1    2    0    0  0.00000000000E+00  0.00000000000E+00 -0.22404437691E+02  0.30037028151E+02  0.20006604706E+02 0.  0.
        -11    1    3    3    0    0  0.21391778631E+01  0.97712327753E+01 -0.11031131290E+02  0.14890900903E+02  0.51100000000E-03 0. -1.
         11    1    3    3    0    0 -0.21391778631E+01 -0.97712327753E+01 -0.11373306400E+02  0.15146127248E+02  0.51100000000E-03 0.  1.
<mgrwt>
<rscale>  0 0.20006605E+02</rscale>
<asrwt>0</asrwt>
<pdfrwt beam="1">  1        4 0.58712236E-03 0.20006605E+02</pdfrwt>
<pdfrwt beam="2">  1       -4 0.40339588E-02 0.20006605E+02</pdfrwt>
<totfact> 0.12445454E+06</totfact>
</mgrwt>
</event>
<event>
 5    1  0.1154861E-006  0.2000129E+02  0.7818608E-02  0.1745302E+00
          4   -1    0    0  501    0  0.00000000000E+00  0.00000000000E+00  0.83778038413E+00  0.16487194947E+01  0.14200000000E+01 0.  1.
         -4   -1    0    0    0  501 -0.00000000000E+00 -0.00000000000E+00 -0.79625403871E+02  0.79638064653E+02  0.14200000000E+01 0. -1.
       1023    2    1    2    0    0  0.00000000000E+00  0.00000000000E+00 -0.78787623487E+02  0.81286784148E+02  0.20001291516E+02 0.  0.
        -11    1    3    3    0    0 -0.66584521087E+01  0.74617389438E+01 -0.39473322920E+02  0.40720458680E+02  0.51100000000E-03 0.  1.
         11    1    3    3    0    0  0.66584521087E+01 -0.74617389438E+01 -0.39314300568E+02  0.40566325467E+02  0.51100000000E-03 0. -1.
<mgrwt>
<rscale>  0 0.20001292E+02</rscale>
<asrwt>0</asrwt>
<pdfrwt beam="1">  1        4 0.19224319E-03 0.20001292E+02</pdfrwt>
<pdfrwt beam="2">  1       -4 0.12313412E-01 0.20001292E+02</pdfrwt>
<totfact> 0.10367961E+06</totfact>
</mgrwt>
</event>
<event>
 5    1  0.1154861E-006  0.2000047E+02  0.7818608E-02  0.1745319E+00
          4   -1    0    0  501    0  0.00000000000E+00  0.00000000000E+00  0.58268553723E+02  0.58285853798E+02  0.14200000000E+01 0.  1.
         -4   -1    0    0    0  501 -0.00000000000E+00 -0.00000000000E+00 -0.14019127659E+01  0.19954346402E+01  0.14200000000E+01 0. -1.
       1023    2    1    2    0    0  0.00000000000E+00  0.00000000000E+00  0.56866640957E+02  0.60281288438E+02  0.20000472045E+02 0.  0.
        -11    1    3    3    0    0  0.47075273192E+01 -0.88226999987E+01  0.28245785192E+02  0.29963731912E+02  0.51100000000E-03 0.  1.
         11    1    3    3    0    0 -0.47075273192E+01  0.88226999987E+01  0.28620855765E+02  0.30317556526E+02  0.51100000000E-03 0. -1.
<mgrwt>
<rscale>  0 0.20000472E+02</rscale>
<asrwt>0</asrwt>
<pdfrwt beam="1">  1        4 0.90113794E-02 0.20000472E+02</pdfrwt>
<pdfrwt beam="2">  1       -4 0.26266518E-03 0.20000472E+02</pdfrwt>
<totfact> 0.11107541E+06</totfact>
</mgrwt>
</event>
<event>
 5    1  0.1154861E-006  0.2000523E+02  0.7818608E-02  0.1745224E+00
          4   -1    0    0  501    0  0.00000000000E+00  0.00000000000E+00  0.45092463423E+02  0.45114816387E+02  0.14200000000E+01 0. -1.
         -4   -1    0    0    0  501 -0.00000000000E+00 -0.00000000000E+00 -0.19662985888E+01  0.24254340107E+01  0.14200000000E+01 0.  1.
       1023    2    1    2    0    0  0.00000000000E+00  0.00000000000E+00  0.43126164835E+02  0.47540250397E+02  0.20005232178E+02 0.  0.
        -11    1    3    3    0    0 -0.86692612026E+01 -0.49848840725E+01  0.22079198974E+02  0.24238320623E+02  0.51100000000E-03 0. -1.
         11    1    3    3    0    0  0.86692612026E+01  0.49848840725E+01  0.21046965861E+02  0.23301929775E+02  0.51100000000E-03 0.  1.
<mgrwt>
<rscale>  0 0.20005232E+02</rscale>
<asrwt>0</asrwt>
<pdfrwt beam="1">  1        4 0.69743390E-02 0.20005232E+02</pdfrwt>
<pdfrwt beam="2">  1       -4 0.33954507E-03 0.20005232E+02</pdfrwt>
<totfact> 0.11618788E+06</totfact>
</mgrwt>
</event>
<event>
 5    1  0.1154861E-006  0.2000124E+02  0.7818608E-02  0.1745303E+00
         -4   -1    0    0    0  501 -0.00000000000E+00  0.00000000000E+00  0.99431742986E+00  0.17335129510E+01  0.14200000000E+01 0.  1.
          4   -1    0    0  501    0  0.00000000000E+00 -0.00000000000E+00 -0.72579384518E+02  0.72593274186E+02  0.14200000000E+01 0. -1.
       1023    2    1    2    0    0  0.00000000000E+00  0.00000000000E+00 -0.71585067088E+02  0.74326787137E+02  0.20001236363E+02 0.  0.
        -11    1    3    3    0    0  0.80227495966E+01 -0.59702035282E+01 -0.35542627014E+02  0.36922705434E+02  0.51100000000E-03 0. -1.
         11    1    3    3    0    0 -0.80227495966E+01  0.59702035282E+01 -0.36042440074E+02  0.37404081703E+02  0.51100000000E-03 0.  1.
<mgrwt>
<rscale>  0 0.20001236E+02</rscale>
<asrwt>0</asrwt>
<pdfrwt beam="2">  1        4 0.11223986E-01 0.20001236E+02</pdfrwt>
<pdfrwt beam="1">  1       -4 0.21090160E-03 0.20001236E+02</pdfrwt>
<totfact> 0.10599316E+06</totfact>
</mgrwt>
</event>
<event>
 5    1  0.1154861E-006  0.2000711E+02  0.7818608E-02  0.1745187E+00
         -4   -1    0    0    0  501 -0.00000000000E+00  0.00000000000E+00  0.28344104627E+02  0.28379652343E+02  0.14200000000E+01 0. -1.
          4   -1    0    0  501    0  0.00000000000E+00 -0.00000000000E+00 -0.33484007862E+01  0.36370575779E+01  0.14200000000E+01 0.  1.
       1023    2    1    2    0    0  0.00000000000E+00  0.00000000000E+00  0.24995703841E+02  0.32016709921E+02  0.20007111327E+02 0.  0.
        -11    1    3    3    0    0 -0.99365133783E+01  0.11277804662E+01  0.12090054671E+02  0.15689984357E+02  0.51100000000E-03 0. -1.
         11    1    3    3    0    0  0.99365133783E+01 -0.11277804662E+01  0.12905649169E+02  0.16326725564E+02  0.51100000000E-03 0.  1.
<mgrwt>
<rscale>  0 0.20007111E+02</rscale>
<asrwt>0</asrwt>
<pdfrwt beam="2">  1        4 0.54007737E-03 0.20007111E+02</pdfrwt>
<pdfrwt beam="1">  1       -4 0.43855705E-02 0.20007111E+02</pdfrwt>
<totfact> 0.12342699E+06</totfact>
</mgrwt>
</event>
<event>
 5    1  0.1159050E-006  0.2000199E+02  0.7818608E-02  0.1745289E+00
          4   -1    0    0  501    0  0.00000000000E+00  0.00000000000E+00  0.26527823869E+02  0.26565802063E+02  0.14200000000E+01 0. -1.
         -4   -1    0    0    0  501 -0.00000000000E+00 -0.00000000000E+00 -0.35944430402E+01  0.38647665866E+01  0.14200000000E+01 0.  1.
       1023    2    1    2    0    0  0.00000000000E+00  0.00000000000E+00  0.22933380829E+02  0.30430568650E+02  0.20001988703E+02 0.  0.
        -11    1    3    3    0    0  0.70746012384E+01 -0.70685578286E+01  0.11578439684E+02  0.15299501895E+02  0.51100000000E-03 0. -1.
         11    1    3    3    0    0 -0.70746012384E+01  0.70685578286E+01  0.11354941145E+02  0.15131066755E+02  0.51100000000E-03 0.  1.
<mgrwt>
<rscale>  0 0.20001989E+02</rscale>
<asrwt>0</asrwt>
<pdfrwt beam="1">  1        4 0.41049193E-02 0.20001989E+02</pdfrwt>
<pdfrwt beam="2">  1       -4 0.57670674E-03 0.20001989E+02</pdfrwt>
<totfact> 0.12430801E+06</totfact>
</mgrwt>
</event>
<event>
 5    1  0.1211812E-006  0.2000091E+02  0.7818608E-02  0.1745310E+00
         -4   -1    0    0    0  501 -0.00000000000E+00  0.00000000000E+00  0.10181571008E+02  0.10280116156E+02  0.14200000000E+01 0. -1.
          4   -1    0    0  501    0  0.00000000000E+00 -0.00000000000E+00 -0.96243606079E+01  0.97285516451E+01  0.14200000000E+01 0.  1.
       1023    2    1    2    0    0  0.00000000000E+00  0.00000000000E+00  0.55721039971E+00  0.20008667801E+02  0.20000907573E+02 0.  0.
        -11    1    3    3    0    0  0.99988121443E+01 -0.17783896428E+00  0.31332721328E+00  0.10005300855E+02  0.51100000000E-03 0. -1.
         11    1    3    3    0    0 -0.99988121443E+01  0.17783896428E+00  0.24388318643E+00  0.10003366946E+02  0.51100000000E-03 0.  1.
<mgrwt>
<rscale>  0 0.20000908E+02</rscale>
<asrwt>0</asrwt>
<pdfrwt beam="2">  1        4 0.14962660E-02 0.20000908E+02</pdfrwt>
<pdfrwt beam="1">  1       -4 0.15819906E-02 0.20000908E+02</pdfrwt>
<totfact> 0.13012325E+06</totfact>
</mgrwt>
</event>
<event>
 5    1  0.1154861E-006  0.2000021E+02  0.7818608E-02  0.1745324E+00
         -4   -1    0    0    0  501 -0.00000000000E+00  0.00000000000E+00  0.42474175035E+01  0.44784992407E+01  0.14200000000E+01 0.  1.
          4   -1    0    0  501    0  0.00000000000E+00 -0.00000000000E+00 -0.22666811825E+02  0.22711247396E+02  0.14200000000E+01 0. -1.
       1023    2    1    2    0    0  0.00000000000E+00  0.00000000000E+00 -0.18419394321E+02  0.27189746637E+02  0.20000205875E+02 0.  0.
        -11    1    3    3    0    0  0.90087120398E+01  0.43409922859E+01 -0.91677545369E+01  0.13566459750E+02  0.51100000000E-03 0.  1.
         11    1    3    3    0    0 -0.90087120398E+01 -0.43409922859E+01 -0.92516397842E+01  0.13623286887E+02  0.51100000000E-03 0. -1.
<mgrwt>
<rscale>  0 0.20000206E+02</rscale>
<asrwt>0</asrwt>
<pdfrwt beam="2">  1        4 0.35083954E-02 0.20000206E+02</pdfrwt>
<pdfrwt beam="1">  1       -4 0.67464250E-03 0.20000206E+02</pdfrwt>
<totfact> 0.12604941E+06</totfact>
</mgrwt>
</event>
<event>
 5    1  0.1154861E-006  0.2000055E+02  0.7818608E-02  0.1745317E+00
         -4   -1    0    0    0  501 -0.00000000000E+00  0.00000000000E+00  0.19416300898E+02  0.19468157092E+02  0.14200000000E+01 0.  1.
          4   -1    0    0  501    0  0.00000000000E+00 -0.00000000000E+00 -0.49927338481E+01  0.51907409180E+01  0.14200000000E+01 0. -1.
       1023    2    1    2    0    0  0.00000000000E+00  0.00000000000E+00  0.14423567050E+02  0.24658898010E+02  0.20000549108E+02 0.  0.
        -11    1    3    3    0    0  0.28347814366E+01  0.95900564119E+01  0.71896212716E+01  0.12316485784E+02  0.51100000000E-03 0. -1.
         11    1    3    3    0    0 -0.28347814366E+01 -0.95900564119E+01  0.72339457787E+01  0.12342412226E+02  0.51100000000E-03 0.  1.
<mgrwt>
<rscale>  0 0.20000549E+02</rscale>
<asrwt>0</asrwt>
<pdfrwt beam="2">  1        4 0.78733316E-03 0.20000549E+02</pdfrwt>
<pdfrwt beam="1">  1       -4 0.30063434E-02 0.20000549E+02</pdfrwt>
<totfact> 0.12743967E+06</totfact>
</mgrwt>
</event>
<event>
 5    1  0.1154861E-006  0.2000025E+02  0.7818608E-02  0.1745323E+00
          4   -1    0    0  501    0  0.00000000000E+00  0.00000000000E+00  0.12019826862E+02  0.12103414303E+02  0.14200000000E+01 0. -1.
         -4   -1    0    0    0  501 -0.00000000000E+00 -0.00000000000E+00 -0.81457422511E+01  0.82685861440E+01  0.14200000000E+01 0.  1.
       1023    2    1    2    0    0  0.00000000000E+00  0.00000000000E+00  0.38740846112E+01  0.20372000447E+02  0.20000246765E+02 0.  0.
        -11    1    3    3    0    0 -0.76077075202E+01  0.64902226196E+01  0.18885759680E+01  0.10176783520E+02  0.51100000000E-03 0. -1.
         11    1    3    3    0    0  0.76077075202E+01 -0.64902226196E+01  0.19855086432E+01  0.10195216927E+02  0.51100000000E-03 0.  1.
<mgrwt>
<rscale>  0 0.20000247E+02</rscale>
<asrwt>0</asrwt>
<pdfrwt beam="1">  1        4 0.18650835E-02 0.20000247E+02</pdfrwt>
<pdfrwt beam="2">  1       -4 0.12690704E-02 0.20000247E+02</pdfrwt>
<totfact> 0.12991583E+06</totfact>
</mgrwt>
</event>
<event>
 5    1  0.1154861E-006  0.2000641E+02  0.7818608E-02  0.1745201E+00
         -4   -1    0    0    0  501 -0.00000000000E+00  0.00000000000E+00  0.10102927048E+02  0.10202231861E+02  0.14200000000E+01 0.  1.
          4   -1    0    0  501    0  0.00000000000E+00 -0.00000000000E+00 -0.97048005770E+01  0.98081371442E+01  0.14200000000E+01 0. -1.
       1023    2    1    2    0    0  0.00000000000E+00  0.00000000000E+00  0.39812647122E+00  0.20010369005E+02  0.20006408049E+02 0.  0.
        -11    1    3    3    0    0 -0.61340715249E+00 -0.99836683134E+01  0.31820511903E+00  0.10007554950E+02  0.51100000000E-03 0. -1.
         11    1    3    3    0    0  0.61340715249E+00  0.99836683134E+01  0.79921352192E-01  0.10002814055E+02  0.51100000000E-03 0.  1.
<mgrwt>
<rscale>  0 0.20006408E+02</rscale>
<asrwt>0</asrwt>
<pdfrwt beam="2">  1        4 0.15086341E-02 0.20006408E+02</pdfrwt>
<pdfrwt beam="1">  1       -4 0.15698843E-02 0.20006408E+02</pdfrwt>
<totfact> 0.13004919E+06</totfact>
</mgrwt>
</event>
<event>
 5    1  0.1154861E-006  0.2000358E+02  0.7818608E-02  0.1745257E+00
          4   -1    0    0  501    0  0.00000000000E+00  0.00000000000E+00  0.68345280795E+02  0.68360030771E+02  0.14200000000E+01 0.  1.
         -4   -1    0    0    0  501 -0.00000000000E+00 -0.00000000000E+00 -0.11007784765E+01  0.17966950922E+01  0.14200000000E+01 0. -1.
       1023    2    1    2    0    0  0.00000000000E+00  0.00000000000E+00  0.67244502319E+02  0.70156725863E+02  0.20003576973E+02 0.  0.
        -11    1    3    3    0    0 -0.98873741490E+01 -0.14973605247E+01  0.34264334516E+02  0.35693793245E+02  0.51100000000E-03 0. -1.
         11    1    3    3    0    0  0.98873741490E+01  0.14973605247E+01  0.32980167802E+02  0.34462932618E+02  0.51100000000E-03 0.  1.
<mgrwt>
<rscale>  0 0.20003577E+02</rscale>
<asrwt>0</asrwt>
<pdfrwt beam="1">  1        4 0.10569322E-01 0.20003577E+02</pdfrwt>
<pdfrwt beam="2">  1       -4 0.22401727E-03 0.20003577E+02</pdfrwt>
<totfact> 0.10741416E+06</totfact>
</mgrwt>
</event>
<event>
 5    1  0.1154861E-006  0.2000019E+02  0.7818608E-02  0.1745324E+00
         -4   -1    0    0    0  501 -0.00000000000E+00  0.00000000000E+00  0.34401393692E+02  0.34430688171E+02  0.14200000000E+01 0.  1.
          4   -1    0    0  501    0  0.00000000000E+00 -0.00000000000E+00 -0.27010496570E+01  0.30515683263E+01  0.14200000000E+01 0. -1.
       1023    2    1    2    0    0  0.00000000000E+00  0.00000000000E+00  0.31700344035E+02  0.37482256497E+02  0.20000193504E+02 0.  0.
        -11    1    3    3    0    0  0.45922990476E+01 -0.88832828759E+01  0.15855977473E+02  0.18746038170E+02  0.51100000000E-03 0.  1.
         11    1    3    3    0    0 -0.45922990476E+01  0.88832828759E+01  0.15844366562E+02  0.18736218327E+02  0.51100000000E-03 0. -1.
<mgrwt>
<rscale>  0 0.20000194E+02</rscale>
<asrwt>0</asrwt>
<pdfrwt beam="2">  1        4 0.44476249E-03 0.20000194E+02</pdfrwt>
<pdfrwt beam="1">  1       -4 0.53217386E-02 0.20000194E+02</pdfrwt>
<totfact> 0.12081210E+06</totfact>
</mgrwt>
</event>
<event>
 5    1  0.1154861E-006  0.2000038E+02  0.7818608E-02  0.1745321E+00
          4   -1    0    0  501    0  0.00000000000E+00  0.00000000000E+00  0.18759275077E+01  0.23527651846E+01  0.14200000000E+01 0. -1.
         -4   -1    0    0    0  501 -0.00000000000E+00 -0.00000000000E+00 -0.46808899305E+02  0.46830432991E+02  0.14200000000E+01 0.  1.
       1023    2    1    2    0    0  0.00000000000E+00  0.00000000000E+00 -0.44932971797E+02  0.49183198176E+02  0.20000375703E+02 0.  0.
        -11    1    3    3    0    0  0.23664917254E+01  0.97161197718E+01 -0.22520937203E+02  0.24641344916E+02  0.51100000000E-03 0. -1.
         11    1    3    3    0    0 -0.23664917254E+01 -0.97161197718E+01 -0.22412034594E+02  0.24541853260E+02  0.51100000000E-03 0.  1.
<mgrwt>
<rscale>  0 0.20000376E+02</rscale>
<asrwt>0</asrwt>
<pdfrwt beam="1">  1        4 0.32694052E-03 0.20000376E+02</pdfrwt>
<pdfrwt beam="2">  1       -4 0.72397046E-02 0.20000376E+02</pdfrwt>
<totfact> 0.11554268E+06</totfact>
</mgrwt>
</event>
<event>
 5    1  0.1176263E-006  0.2000076E+02  0.7818608E-02  0.1745313E+00
          4   -1    0    0  501    0  0.00000000000E+00  0.00000000000E+00  0.17061096908E+02  0.17120088425E+02  0.14200000000E+01 0.  1.
         -4   -1    0    0    0  501 -0.00000000000E+00 -0.00000000000E+00 -0.57054478166E+01  0.58795012364E+01  0.14200000000E+01 0. -1.
       1023    2    1    2    0    0  0.00000000000E+00  0.00000000000E+00  0.11355649091E+02  0.22999589662E+02  0.20000758944E+02 0.  0.
        -11    1    3    3    0    0 -0.78702698575E+01 -0.61697140721E+01  0.57154392295E+01  0.11518366430E+02  0.51100000000E-03 0.  1.
         11    1    3    3    0    0  0.78702698575E+01  0.61697140721E+01  0.56402098616E+01  0.11481223232E+02  0.51100000000E-03 0. -1.
<mgrwt>
<rscale>  0 0.20000759E+02</rscale>
<asrwt>0</asrwt>
<pdfrwt beam="1">  1        4 0.26427107E-02 0.20000759E+02</pdfrwt>
<pdfrwt beam="2">  1       -4 0.89568774E-03 0.20000759E+02</pdfrwt>
<totfact> 0.12837607E+06</totfact>
</mgrwt>
</event>
<event>
 5    1  0.1154861E-006  0.2000067E+02  0.7818608E-02  0.1745315E+00
         -4   -1    0    0    0  501 -0.00000000000E+00  0.00000000000E+00  0.20181336946E+01  0.24676433310E+01  0.14200000000E+01 0. -1.
          4   -1    0    0  501    0  0.00000000000E+00 -0.00000000000E+00 -0.44126260175E+02  0.44149102335E+02  0.14200000000E+01 0.  1.
       1023    2    1    2    0    0  0.00000000000E+00  0.00000000000E+00 -0.42108126480E+02  0.46616745666E+02  0.20000666510E+02 0.  0.
        -11    1    3    3    0    0  0.92777763281E+01  0.37321244494E+01 -0.21119093122E+02  0.23367113237E+02  0.51100000000E-03 0.  1.
         11    1    3    3    0    0 -0.92777763281E+01 -0.37321244494E+01 -0.20989033359E+02  0.23249632429E+02  0.51100000000E-03 0. -1.
<mgrwt>
<rscale>  0 0.20000667E+02</rscale>
<asrwt>0</asrwt>
<pdfrwt beam="2">  1        4 0.68249895E-02 0.20000667E+02</pdfrwt>
<pdfrwt beam="1">  1       -4 0.34681689E-03 0.20000667E+02</pdfrwt>
<totfact> 0.11664122E+06</totfact>
</mgrwt>
</event>
<event>
 5    1  0.1154861E-006  0.2000360E+02  0.7818608E-02  0.1745256E+00
          4   -1    0    0  501    0  0.00000000000E+00  0.00000000000E+00  0.34336231750E+01  0.37156652309E+01  0.14200000000E+01 0. -1.
         -4   -1    0    0    0  501 -0.00000000000E+00 -0.00000000000E+00 -0.27683935591E+02  0.27720329901E+02  0.14200000000E+01 0.  1.
       1023    2    1    2    0    0  0.00000000000E+00  0.00000000000E+00 -0.24250312416E+02  0.31435995132E+02  0.20003603116E+02 0.  0.
        -11    1    3    3    0    0  0.68498198421E+01 -0.72878673755E+01 -0.12039204205E+02  0.15651692589E+02  0.51100000000E-03 0. -1.
         11    1    3    3    0    0 -0.68498198421E+01  0.72878673755E+01 -0.12211108211E+02  0.15784302542E+02  0.51100000000E-03 0.  1.
<mgrwt>
<rscale>  0 0.20003603E+02</rscale>
<asrwt>0</asrwt>
<pdfrwt beam="1">  1        4 0.55274484E-03 0.20003603E+02</pdfrwt>
<pdfrwt beam="2">  1       -4 0.42835620E-02 0.20003603E+02</pdfrwt>
<totfact> 0.12376840E+06</totfact>
</mgrwt>
</event>
<event>
 5    1  0.1211022E-006  0.2000162E+02  0.7818608E-02  0.1745296E+00
          4   -1    0    0  501    0  0.00000000000E+00  0.00000000000E+00  0.47419948826E+01  0.49500419662E+01  0.14200000000E+01 0. -1.
         -4   -1    0    0    0  501 -0.00000000000E+00 -0.00000000000E+00 -0.20405597861E+02  0.20454946201E+02  0.14200000000E+01 0.  1.
       1023    2    1    2    0    0  0.00000000000E+00  0.00000000000E+00 -0.15663602978E+02  0.25404988167E+02  0.20001624071E+02 0.  0.
        -11    1    3    3    0    0 -0.38031182389E+01 -0.92493688413E+01 -0.77792965080E+01  0.12670121812E+02  0.51100000000E-03 0. -1.
         11    1    3    3    0    0  0.38031182389E+01  0.92493688413E+01 -0.78843064705E+01  0.12734866355E+02  0.51100000000E-03 0.  1.
<mgrwt>
<rscale>  0 0.20001624E+02</rscale>
<asrwt>0</asrwt>
<pdfrwt beam="1">  1        4 0.74933733E-03 0.20001624E+02</pdfrwt>
<pdfrwt beam="2">  1       -4 0.31591224E-02 0.20001624E+02</pdfrwt>
<totfact> 0.12700956E+06</totfact>
</mgrwt>
</event>
<event>
 5    1  0.1154861E-006  0.2000647E+02  0.7818608E-02  0.1745199E+00
          4   -1    0    0  501    0  0.00000000000E+00  0.00000000000E+00  0.21373183132E+02  0.21420302454E+02  0.14200000000E+01 0.  1.
         -4   -1    0    0    0  501 -0.00000000000E+00 -0.00000000000E+00 -0.45205027225E+01  0.47382850129E+01  0.14200000000E+01 0. -1.
       1023    2    1    2    0    0  0.00000000000E+00  0.00000000000E+00  0.16852680410E+02  0.26158587467E+02  0.20006470485E+02 0.  0.
        -11    1    3    3    0    0  0.42120247247E+01 -0.90729158271E+01  0.85255829922E+01  0.13143230939E+02  0.51100000000E-03 0.  1.
         11    1    3    3    0    0 -0.42120247247E+01  0.90729158271E+01  0.83270974176E+01  0.13015356528E+02  0.51100000000E-03 0. -1.
<mgrwt>
<rscale>  0 0.20006470E+02</rscale>
<asrwt>0</asrwt>
<pdfrwt beam="1">  1        4 0.33085591E-02 0.20006470E+02</pdfrwt>
<pdfrwt beam="2">  1       -4 0.71583900E-03 0.20006470E+02</pdfrwt>
<totfact> 0.12653115E+06</totfact>
</mgrwt>
</event>
<event>
 5    1  0.1154861E-006  0.2000235E+02  0.7818608E-02  0.1745281E+00
          4   -1    0    0  501    0  0.00000000000E+00  0.00000000000E+00  0.21429240671E+01  0.25707048756E+01  0.14200000000E+01 0. -1.
         -4   -1    0    0    0  501 -0.00000000000E+00 -0.00000000000E+00 -0.41999264762E+02  0.42023263088E+02  0.14200000000E+01 0.  1.
       1023    2    1    2    0    0  0.00000000000E+00  0.00000000000E+00 -0.39856340695E+02  0.44593967964E+02  0.20002351990E+02 0.  0.
        -11    1    3    3    0    0  0.86715830753E+01  0.49825925390E+01 -0.19859832303E+02  0.22235906116E+02  0.51100000000E-03 0.  1.
         11    1    3    3    0    0 -0.86715830753E+01 -0.49825925390E+01 -0.19996508393E+02  0.22358061848E+02  0.51100000000E-03 0. -1.
<mgrwt>
<rscale>  0 0.20002352E+02</rscale>
<asrwt>0</asrwt>
<pdfrwt beam="1">  1        4 0.36443290E-03 0.20002352E+02</pdfrwt>
<pdfrwt beam="2">  1       -4 0.64961770E-02 0.20002352E+02</pdfrwt>
<totfact> 0.11751006E+06</totfact>
</mgrwt>
</event>
<event>
 5    1  0.1154861E-006  0.2000025E+02  0.7818608E-02  0.1745323E+00
          4   -1    0    0  501    0  0.00000000000E+00  0.00000000000E+00  0.24729552615E+02  0.24770288100E+02  0.14200000000E+01 0.  1.
         -4   -1    0    0    0  501 -0.00000000000E+00 -0.00000000000E+00 -0.38736424690E+01  0.41257127842E+01  0.14200000000E+01 0. -1.
       1023    2    1    2    0    0  0.00000000000E+00  0.00000000000E+00  0.20855910146E+02  0.28896000884E+02  0.20000246975E+02 0.  0.
        -11    1    3    3    0    0  0.80578732343E+01 -0.59222585292E+01  0.10425737176E+02  0.14446399658E+02  0.51100000000E-03 0. -1.
         11    1    3    3    0    0 -0.80578732343E+01  0.59222585292E+01  0.10430172970E+02  0.14449601226E+02  0.51100000000E-03 0.  1.
<mgrwt>
<rscale>  0 0.20000247E+02</rscale>
<asrwt>0</asrwt>
<pdfrwt beam="1">  1        4 0.38270700E-02 0.20000247E+02</pdfrwt>
<pdfrwt beam="2">  1       -4 0.61846852E-03 0.20000247E+02</pdfrwt>
<totfact> 0.12513495E+06</totfact>
</mgrwt>
</event>
<event>
 5    1  0.1154861E-006  0.2000138E+02  0.7818608E-02  0.1745301E+00
          4   -1    0    0  501    0  0.00000000000E+00  0.00000000000E+00  0.13168939960E+01  0.19366491156E+01  0.14200000000E+01 0.  1.
         -4   -1    0    0    0  501 -0.00000000000E+00 -0.00000000000E+00 -0.60850289857E+02  0.60866856135E+02  0.14200000000E+01 0. -1.
       1023    2    1    2    0    0  0.00000000000E+00  0.00000000000E+00 -0.59533395861E+02  0.62803505250E+02  0.20001376176E+02 0.  0.
        -11    1    3    3    0    0 -0.83334614931E+01 -0.55283307764E+01 -0.29982884594E+02  0.31606682687E+02  0.51100000000E-03 0.  1.
         11    1    3    3    0    0  0.83334614931E+01  0.55283307764E+01 -0.29550511267E+02  0.31196822563E+02  0.51100000000E-03 0. -1.
<mgrwt>
<rscale>  0 0.20001376E+02</rscale>
<asrwt>0</asrwt>
<pdfrwt beam="1">  1        4 0.25154692E-03 0.20001376E+02</pdfrwt>
<pdfrwt beam="2">  1       -4 0.94105291E-02 0.20001376E+02</pdfrwt>
<totfact> 0.11010993E+06</totfact>
</mgrwt>
</event>
<event>
 5    1  0.1154861E-006  0.2000268E+02  0.7818608E-02  0.1745275E+00
          4   -1    0    0  501    0  0.00000000000E+00  0.00000000000E+00  0.39221513460E+02  0.39247210322E+02  0.14200000000E+01 0.  1.
         -4   -1    0    0    0  501 -0.00000000000E+00 -0.00000000000E+00 -0.23239620778E+01  0.27234536418E+01  0.14200000000E+01 0. -1.
       1023    2    1    2    0    0  0.00000000000E+00  0.00000000000E+00  0.36897551382E+02  0.41970663964E+02  0.20002683210E+02 0.  0.
        -11    1    3    3    0    0 -0.82024352891E+01  0.57212032015E+01  0.18194178189E+02  0.20761508398E+02  0.51100000000E-03 0.  1.
         11    1    3    3    0    0  0.82024352891E+01 -0.57212032015E+01  0.18703373193E+02  0.21209155566E+02  0.51100000000E-03 0. -1.
<mgrwt>
<rscale>  0 0.20002683E+02</rscale>
<asrwt>0</asrwt>
<pdfrwt beam="1">  1        4 0.60667859E-02 0.20002683E+02</pdfrwt>
<pdfrwt beam="2">  1       -4 0.39023942E-03 0.20002683E+02</pdfrwt>
<totfact> 0.11868639E+06</totfact>
</mgrwt>
</event>
<event>
 5    1  0.1154861E-006  0.2000030E+02  0.7818608E-02  0.1745322E+00
          4   -1    0    0  501    0  0.00000000000E+00  0.00000000000E+00  0.56994886271E+02  0.57012572833E+02  0.14200000000E+01 0.  1.
         -4   -1    0    0    0  501 -0.00000000000E+00 -0.00000000000E+00 -0.14463105959E+01  0.20268730448E+01  0.14200000000E+01 0. -1.
       1023    2    1    2    0    0  0.00000000000E+00  0.00000000000E+00  0.55548575675E+02  0.59039445878E+02  0.20000297749E+02 0.  0.
        -11    1    3    3    0    0  0.97511594937E+01 -0.22175999622E+01  0.27742469609E+02  0.29489786051E+02  0.51100000000E-03 0.  1.
         11    1    3    3    0    0 -0.97511594937E+01  0.22175999622E+01  0.27806106066E+02  0.29549659827E+02  0.51100000000E-03 0. -1.
<mgrwt>
<rscale>  0 0.20000298E+02</rscale>
<asrwt>0</asrwt>
<pdfrwt beam="1">  1        4 0.88144631E-02 0.20000298E+02</pdfrwt>
<pdfrwt beam="2">  1       -4 0.26852848E-03 0.20000298E+02</pdfrwt>
<totfact> 0.11155526E+06</totfact>
</mgrwt>
</event>
<event>
 5    1  0.1154861E-006  0.2000207E+02  0.7818608E-02  0.1745287E+00
          4   -1    0    0  501    0  0.00000000000E+00  0.00000000000E+00  0.10871681839E+02  0.10964025994E+02  0.14200000000E+01 0.  1.
         -4   -1    0    0    0  501 -0.00000000000E+00 -0.00000000000E+00 -0.90130424521E+01  0.91242169113E+01  0.14200000000E+01 0. -1.
       1023    2    1    2    0    0  0.00000000000E+00  0.00000000000E+00  0.18586393866E+01  0.20088242905E+02  0.20002073959E+02 0.  0.
        -11    1    3    3    0    0 -0.97811937403E+01  0.20834900796E+01  0.10194756064E+01  0.10052463015E+02  0.51100000000E-03 0.  1.
         11    1    3    3    0    0  0.97811937403E+01 -0.20834900796E+01  0.83916378016E+00  0.10035779890E+02  0.51100000000E-03 0. -1.
<mgrwt>
<rscale>  0 0.20002074E+02</rscale>
<asrwt>0</asrwt>
<pdfrwt beam="1">  1        4 0.16882217E-02 0.20002074E+02</pdfrwt>
<pdfrwt beam="2">  1       -4 0.14022772E-02 0.20002074E+02</pdfrwt>
<totfact> 0.13006055E+06</totfact>
</mgrwt>
</event>
<event>
 5    1  0.1161797E-006  0.2000061E+02  0.7818608E-02  0.1745316E+00
         -4   -1    0    0    0  501 -0.00000000000E+00  0.00000000000E+00  0.17669236578E+02  0.17726204367E+02  0.14200000000E+01 0. -1.
          4   -1    0    0  501    0  0.00000000000E+00 -0.00000000000E+00 -0.55035553459E+01  0.56837946344E+01  0.14200000000E+01 0.  1.
       1023    2    1    2    0    0  0.00000000000E+00  0.00000000000E+00  0.12165681232E+02  0.23409999001E+02  0.20000606325E+02 0.  0.
        -11    1    3    3    0    0  0.49690531622E+01  0.86783891985E+01  0.60964238295E+01  0.11712058409E+02  0.51100000000E-03 0. -1.
         11    1    3    3    0    0 -0.49690531622E+01 -0.86783891985E+01  0.60692574026E+01  0.11697940592E+02  0.51100000000E-03 0.  1.
<mgrwt>
<rscale>  0 0.20000606E+02</rscale>
<asrwt>0</asrwt>
<pdfrwt beam="2">  1        4 0.86494756E-03 0.20000606E+02</pdfrwt>
<pdfrwt beam="1">  1       -4 0.27365907E-02 0.20000606E+02</pdfrwt>
<totfact> 0.12814391E+06</totfact>
</mgrwt>
</event>
<event>
 5    1  0.1154861E-006  0.2000278E+02  0.7818608E-02  0.1745273E+00
         -4   -1    0    0    0  501 -0.00000000000E+00  0.00000000000E+00  0.98965346952E+02  0.98975533832E+02  0.14200000000E+01 0.  1.
          4   -1    0    0  501    0  0.00000000000E+00 -0.00000000000E+00 -0.49660742454E+00  0.15043333853E+01  0.14200000000E+01 0. -1.
       1023    2    1    2    0    0  0.00000000000E+00  0.00000000000E+00  0.98468739528E+02  0.10047986722E+03  0.20002776104E+02 0.  0.
        -11    1    3    3    0    0  0.25497874590E+01  0.96702273727E+01  0.48660543504E+02  0.49677592614E+02  0.51100000000E-03 0.  1.
         11    1    3    3    0    0 -0.25497874590E+01 -0.96702273727E+01  0.49808196024E+02  0.50802274604E+02  0.51100000000E-03 0. -1.
<mgrwt>
<rscale>  0 0.20002776E+02</rscale>
<asrwt>0</asrwt>
<pdfrwt beam="2">  1        4 0.15470216E-03 0.20002776E+02</pdfrwt>
<pdfrwt beam="1">  1       -4 0.15303736E-01 0.20002776E+02</pdfrwt>
<totfact> 0.97848966E+05</totfact>
</mgrwt>
</event>
<event>
 4    1  0.1154861E-006  0.2007863E+02  0.7818608E-02  0.1743769E+00
          4   -1    0    0  501    0  0.00000000000E+00  0.00000000000E+00  0.18937304672E+02  0.18990468879E+02  0.14200000000E+01 0.  1.
         -4   -1    0    0    0  501 -0.00000000000E+00 -0.00000000000E+00 -0.51656187086E+01  0.53572396477E+01  0.14200000000E+01 0. -1.
        -11    1    1    2    0    0  0.41661840107E+00  0.10027810898E+02  0.71761921459E+01  0.12338083168E+02  0.51100000000E-03 0. -1.
         11    1    1    2    0    0 -0.41661840107E+00 -0.10027810898E+02  0.65954938173E+01  0.12009625358E+02  0.51100000000E-03 0.  1.
<mgrwt>
<rscale>  0 0.20078635E+02</rscale>
<asrwt>0</asrwt>
<pdfrwt beam="1">  1        4 0.29322612E-02 0.20078635E+02</pdfrwt>
<pdfrwt beam="2">  1       -4 0.81354018E-03 0.20078635E+02</pdfrwt>
<totfact> 0.12660513E+06</totfact>
</mgrwt>
</event>
<event>
 5    1  0.1154861E-006  0.2000231E+02  0.7818608E-02  0.1745282E+00
         -4   -1    0    0    0  501 -0.00000000000E+00  0.00000000000E+00  0.25579418073E+01  0.29256565570E+01  0.14200000000E+01 0. -1.
          4   -1    0    0  501    0  0.00000000000E+00 -0.00000000000E+00 -0.36098225555E+02  0.36126144110E+02  0.14200000000E+01 0.  1.
       1023    2    1    2    0    0  0.00000000000E+00  0.00000000000E+00 -0.33540283748E+02  0.39051800667E+02  0.20002312402E+02 0.  0.
        -11    1    3    3    0    0  0.69006996785E+01  0.72389242957E+01 -0.16695949847E+02  0.19462179286E+02  0.51100000000E-03 0. -1.
         11    1    3    3    0    0 -0.69006996785E+01 -0.72389242957E+01 -0.16844333901E+02  0.19589621381E+02  0.51100000000E-03 0.  1.
<mgrwt>
<rscale>  0 0.20002312E+02</rscale>
<asrwt>0</asrwt>
<pdfrwt beam="2">  1        4 0.55840062E-02 0.20002312E+02</pdfrwt>
<pdfrwt beam="1">  1       -4 0.42396286E-03 0.20002312E+02</pdfrwt>
<totfact> 0.12004163E+06</totfact>
</mgrwt>
</event>
<event>
 5    1  0.1154861E-006  0.2000267E+02  0.7818608E-02  0.1745275E+00
         -4   -1    0    0    0  501 -0.00000000000E+00  0.00000000000E+00  0.23502810419E+02  0.23545668341E+02  0.14200000000E+01 0. -1.
          4   -1    0    0  501    0  0.00000000000E+00 -0.00000000000E+00 -0.40893370624E+01  0.43288656262E+01  0.14200000000E+01 0.  1.
       1023    2    1    2    0    0  0.00000000000E+00  0.00000000000E+00  0.19413473357E+02  0.27874533967E+02  0.20002667224E+02 0.  0.
        -11    1    3    3    0    0 -0.90854786387E+01  0.41794964130E+01  0.98629214609E+01  0.14046043299E+02  0.51100000000E-03 0. -1.
         11    1    3    3    0    0  0.90854786387E+01 -0.41794964130E+01  0.95505518961E+01  0.13828490668E+02  0.51100000000E-03 0.  1.
<mgrwt>
<rscale>  0 0.20002667E+02</rscale>
<asrwt>0</asrwt>
<pdfrwt beam="2">  1        4 0.65085081E-03 0.20002667E+02</pdfrwt>
<pdfrwt beam="1">  1       -4 0.36375391E-02 0.20002667E+02</pdfrwt>
<totfact> 0.12564872E+06</totfact>
</mgrwt>
</event>
<event>
 5    1  0.1164600E-006  0.2000075E+02  0.7818608E-02  0.1745313E+00
         -4   -1    0    0    0  501 -0.00000000000E+00  0.00000000000E+00  0.17744559702E+02  0.17801286443E+02  0.14200000000E+01 0. -1.
          4   -1    0    0  501    0  0.00000000000E+00 -0.00000000000E+00 -0.54795854699E+01  0.56605880367E+01  0.14200000000E+01 0.  1.
       1023    2    1    2    0    0  0.00000000000E+00  0.00000000000E+00  0.12264974232E+02  0.23461874480E+02  0.20000749016E+02 0.  0.
        -11    1    3    3    0    0 -0.91929695657E+01 -0.39357559085E+01  0.60370003662E+01  0.11681020404E+02  0.51100000000E-03 0. -1.
         11    1    3    3    0    0  0.91929695657E+01  0.39357559085E+01  0.62279738662E+01  0.11780854075E+02  0.51100000000E-03 0.  1.
<mgrwt>
<rscale>  0 0.20000749E+02</rscale>
<asrwt>0</asrwt>
<pdfrwt beam="2">  1        4 0.86130002E-03 0.20000749E+02</pdfrwt>
<pdfrwt beam="1">  1       -4 0.27482191E-02 0.20000749E+02</pdfrwt>
<totfact> 0.12811255E+06</totfact>
</mgrwt>
</event>
<event>
 5    1  0.1154861E-006  0.2000072E+02  0.7818608E-02  0.1745314E+00
          4   -1    0    0  501    0  0.00000000000E+00  0.00000000000E+00  0.13578481405E+02  0.13652529335E+02  0.14200000000E+01 0.  1.
         -4   -1    0    0    0  501 -0.00000000000E+00 -0.00000000000E+00 -0.72015320435E+01  0.73401950773E+01  0.14200000000E+01 0. -1.
       1023    2    1    2    0    0  0.00000000000E+00  0.00000000000E+00  0.63769493611E+01  0.20992724413E+02  0.20000724865E+02 0.  0.
        -11    1    3    3    0    0  0.90717226278E+01 -0.42078572793E+01  0.31140034931E+01  0.10473740131E+02  0.51100000000E-03 0.  1.
         11    1    3    3    0    0 -0.90717226278E+01  0.42078572793E+01  0.32629458680E+01  0.10518984282E+02  0.51100000000E-03 0. -1.
<mgrwt>
<rscale>  0 0.20000725E+02</rscale>
<asrwt>0</asrwt>
<pdfrwt beam="1">  1        4 0.21053595E-02 0.20000725E+02</pdfrwt>
<pdfrwt beam="2">  1       -4 0.11242904E-02 0.20000725E+02</pdfrwt>
<totfact> 0.12954221E+06</totfact>
</mgrwt>
</event>
<event>
 5    1  0.1193097E-006  0.2000128E+02  0.7818608E-02  0.1745303E+00
          4   -1    0    0  501    0  0.00000000000E+00  0.00000000000E+00  0.21929715283E+01  0.26125704056E+01  0.14200000000E+01 0. -1.
         -4   -1    0    0    0  501 -0.00000000000E+00 -0.00000000000E+00 -0.41191046173E+02  0.41215515099E+02  0.14200000000E+01 0.  1.
       1023    2    1    2    0    0  0.00000000000E+00  0.00000000000E+00 -0.38998074645E+02  0.43828085504E+02  0.20001281283E+02 0.  0.
        -11    1    3    3    0    0 -0.97458115566E+01 -0.22430525305E+01 -0.19441668686E+02  0.21862996344E+02  0.51100000000E-03 0.  1.
         11    1    3    3    0    0  0.97458115566E+01  0.22430525305E+01 -0.19556405959E+02  0.21965089161E+02  0.51100000000E-03 0. -1.
<mgrwt>
<rscale>  0 0.20001281E+02</rscale>
<asrwt>0</asrwt>
<pdfrwt beam="1">  1        4 0.37153933E-03 0.20001281E+02</pdfrwt>
<pdfrwt beam="2">  1       -4 0.63712426E-02 0.20001281E+02</pdfrwt>
<totfact> 0.11786416E+06</totfact>
</mgrwt>
</event>
<event>
 5    1  0.1154861E-006  0.2000140E+02  0.7818608E-02  0.1745300E+00
          4   -1    0    0  501    0  0.00000000000E+00  0.00000000000E+00  0.17698632797E+01  0.22691002685E+01  0.14200000000E+01 0. -1.
         -4   -1    0    0    0  501 -0.00000000000E+00 -0.00000000000E+00 -0.49013783868E+02  0.49034349278E+02  0.14200000000E+01 0.  1.
       1023    2    1    2    0    0  0.00000000000E+00  0.00000000000E+00 -0.47243920589E+02  0.51303449546E+02  0.20001397520E+02 0.  0.
        -11    1    3    3    0    0  0.69039525615E+01 -0.72352883462E+01 -0.23632537031E+02  0.25661464596E+02  0.51100000000E-03 0.  1.
         11    1    3    3    0    0 -0.69039525615E+01  0.72352883462E+01 -0.23611383558E+02  0.25641984951E+02  0.51100000000E-03 0. -1.
<mgrwt>
<rscale>  0 0.20001398E+02</rscale>
<asrwt>0</asrwt>
<pdfrwt beam="1">  1        4 0.31227150E-03 0.20001398E+02</pdfrwt>
<pdfrwt beam="2">  1       -4 0.75805660E-02 0.20001398E+02</pdfrwt>
<totfact> 0.11464129E+06</totfact>
</mgrwt>
</event>
<event>
 5    1  0.1215598E-006  0.2000267E+02  0.7818608E-02  0.1745275E+00
          4   -1    0    0  501    0  0.00000000000E+00  0.00000000000E+00  0.98658067667E+01  0.99674742617E+01  0.14200000000E+01 0.  1.
         -4   -1    0    0    0  501 -0.00000000000E+00 -0.00000000000E+00 -0.99343374962E+01  0.10035310732E+02  0.14200000000E+01 0. -1.
       1023    2    1    2    0    0  0.00000000000E+00  0.00000000000E+00 -0.68530729506E-01  0.20002784994E+02  0.20002667598E+02 0.  0.
        -11    1    3    3    0    0 -0.21554718670E+01  0.97651271110E+01 -0.18563017342E+00  0.10001911082E+02  0.51100000000E-03 0. -1.
         11    1    3    3    0    0  0.21554718670E+01 -0.97651271110E+01  0.11709944392E+00  0.10000873912E+02  0.51100000000E-03 0.  1.
<mgrwt>
<rscale>  0 0.20002668E+02</rscale>
<asrwt>0</asrwt>
<pdfrwt beam="1">  1        4 0.15334042E-02 0.20002668E+02</pdfrwt>
<pdfrwt beam="2">  1       -4 0.15439474E-02 0.20002668E+02</pdfrwt>
<totfact> 0.13010336E+06</totfact>
</mgrwt>
</event>
<event>
 5    1  0.1154861E-006  0.2000028E+02  0.7818608E-02  0.1745322E+00
         -4   -1    0    0    0  501 -0.00000000000E+00  0.00000000000E+00  0.31453765733E+01  0.34510569088E+01  0.14200000000E+01 0. -1.
          4   -1    0    0  501    0  0.00000000000E+00 -0.00000000000E+00 -0.29997015556E+02  0.30030606758E+02  0.14200000000E+01 0.  1.
       1023    2    1    2    0    0  0.00000000000E+00  0.00000000000E+00 -0.26851638983E+02  0.33481663667E+02  0.20000282144E+02 0.  0.
        -11    1    3    3    0    0 -0.95605805289E+01 -0.29322431579E+01 -0.13439946801E+02  0.16752161659E+02  0.51100000000E-03 0.  1.
         11    1    3    3    0    0  0.95605805289E+01  0.29322431579E+01 -0.13411692182E+02  0.16729502008E+02  0.51100000000E-03 0. -1.
<mgrwt>
<rscale>  0 0.20000282E+02</rscale>
<asrwt>0</asrwt>
<pdfrwt beam="2">  1        4 0.46410231E-02 0.20000282E+02</pdfrwt>
<pdfrwt beam="1">  1       -4 0.51000192E-03 0.20000282E+02</pdfrwt>
<totfact> 0.12277117E+06</totfact>
</mgrwt>
</event>
<event>
 4    1  0.1154861E-006  0.2012333E+02  0.7818608E-02  0.1742887E+00
          4   -1    0    0  501    0  0.00000000000E+00  0.00000000000E+00  0.53764773902E+01  0.55608370888E+01  0.14200000000E+01 0. -1.
         -4   -1    0    0    0  501 -0.00000000000E+00 -0.00000000000E+00 -0.18299912753E+02  0.18354923230E+02  0.14200000000E+01 0.  1.
        -11    1    1    2    0    0 -0.60606165794E+01 -0.80101167392E+01 -0.57646087514E+01  0.11581181193E+02  0.51100000000E-03 0. -1.
         11    1    1    2    0    0  0.60606165794E+01  0.80101167392E+01 -0.71588266112E+01  0.12334579126E+02  0.51100000000E-03 0.  1.
<mgrwt>
<rscale>  0 0.20123330E+02</rscale>
<asrwt>0</asrwt>
<pdfrwt beam="1">  1        4 0.84556347E-03 0.20123330E+02</pdfrwt>
<pdfrwt beam="2">  1       -4 0.28337842E-02 0.20123330E+02</pdfrwt>
<totfact> 0.12627222E+06</totfact>
</mgrwt>
</event>
<event>
 5    1  0.1154861E-006  0.2000213E+02  0.7818608E-02  0.1745286E+00
         -4   -1    0    0    0  501 -0.00000000000E+00  0.00000000000E+00  0.88799719688E+00  0.16747952178E+01  0.14200000000E+01 0. -1.
          4   -1    0    0  501    0  0.00000000000E+00 -0.00000000000E+00 -0.77261197548E+02  0.77274245687E+02  0.14200000000E+01 0.  1.
       1023    2    1    2    0    0  0.00000000000E+00  0.00000000000E+00 -0.76373200351E+02  0.78949040905E+02  0.20002133086E+02 0.  0.
        -11    1    3    3    0    0  0.97887952067E+01  0.20491021475E+01 -0.38363139851E+02  0.39645300234E+02  0.51100000000E-03 0. -1.
         11    1    3    3    0    0 -0.97887952067E+01 -0.20491021475E+01 -0.38010060500E+02  0.39303740671E+02  0.51100000000E-03 0.  1.
<mgrwt>
<rscale>  0 0.20002133E+02</rscale>
<asrwt>0</asrwt>
<pdfrwt beam="2">  1        4 0.11947861E-01 0.20002133E+02</pdfrwt>
<pdfrwt beam="1">  1       -4 0.19814164E-03 0.20002133E+02</pdfrwt>
<totfact> 0.10443417E+06</totfact>
</mgrwt>
</event>
<event>
 5    1  0.1210742E-006  0.2000099E+02  0.7818608E-02  0.1745308E+00
          4   -1    0    0  501    0  0.00000000000E+00  0.00000000000E+00  0.54584771394E+01  0.56401571504E+01  0.14200000000E+01 0. -1.
         -4   -1    0    0    0  501 -0.00000000000E+00 -0.00000000000E+00 -0.17811611029E+02  0.17868124900E+02  0.14200000000E+01 0.  1.
       1023    2    1    2    0    0  0.00000000000E+00  0.00000000000E+00 -0.12353133890E+02  0.23508282051E+02  0.20000985178E+02 0.  0.
        -11    1    3    3    0    0 -0.60268629590E+01 -0.79797918481E+01 -0.60608275189E+01  0.11693322263E+02  0.51100000000E-03 0.  1.
         11    1    3    3    0    0  0.60268629590E+01  0.79797918481E+01 -0.62923063709E+01  0.11814959788E+02  0.51100000000E-03 0. -1.
<mgrwt>
<rscale>  0 0.20000985E+02</rscale>
<asrwt>0</asrwt>
<pdfrwt beam="1">  1        4 0.85808833E-03 0.20000985E+02</pdfrwt>
<pdfrwt beam="2">  1       -4 0.27585704E-02 0.20000985E+02</pdfrwt>
<totfact> 0.12808309E+06</totfact>
</mgrwt>
</event>
<event>
 5    1  0.1154861E-006  0.2000747E+02  0.7818608E-02  0.1745180E+00
         -4   -1    0    0    0  501 -0.00000000000E+00  0.00000000000E+00  0.66873213746E+02  0.66888288338E+02  0.14200000000E+01 0.  1.
          4   -1    0    0  501    0  0.00000000000E+00 -0.00000000000E+00 -0.11408703157E+01  0.18215337157E+01  0.14200000000E+01 0. -1.
       1023    2    1    2    0    0  0.00000000000E+00  0.00000000000E+00  0.65732343431E+02  0.68709822054E+02  0.20007465450E+02 0.  0.
        -11    1    3    3    0    0 -0.64039829254E+01  0.76832058281E+01  0.32251658690E+02  0.33767027373E+02  0.51100000000E-03 0.  1.
         11    1    3    3    0    0  0.64039829254E+01 -0.76832058281E+01  0.33480684741E+02  0.34942794680E+02  0.51100000000E-03 0. -1.
<mgrwt>
<rscale>  0 0.20007465E+02</rscale>
<asrwt>0</asrwt>
<pdfrwt beam="2">  1        4 0.22903679E-03 0.20007465E+02</pdfrwt>
<pdfrwt beam="1">  1       -4 0.10341706E-01 0.20007465E+02</pdfrwt>
<totfact> 0.10788499E+06</totfact>
</mgrwt>
</event>
<event>
 5    1  0.1154861E-006  0.2000526E+02  0.7818608E-02  0.1745224E+00
         -4   -1    0    0    0  501 -0.00000000000E+00  0.00000000000E+00  0.34969744405E+01  0.37742853943E+01  0.14200000000E+01 0.  1.
          4   -1    0    0  501    0  0.00000000000E+00 -0.00000000000E+00 -0.27223496554E+02  0.27260505582E+02  0.14200000000E+01 0. -1.
       1023    2    1    2    0    0  0.00000000000E+00  0.00000000000E+00 -0.23726522113E+02  0.31034790977E+02  0.20005259293E+02 0.  0.
        -11    1    3    3    0    0 -0.13570659558E+01 -0.99100433349E+01 -0.11793663883E+02  0.15464187497E+02  0.51100000000E-03 0.  1.
         11    1    3    3    0    0  0.13570659558E+01  0.99100433349E+01 -0.11932858230E+02  0.15570603479E+02  0.51100000000E-03 0. -1.
<mgrwt>
<rscale>  0 0.20005259E+02</rscale>
<asrwt>0</asrwt>
<pdfrwt beam="2">  1        4 0.42124086E-02 0.20005259E+02</pdfrwt>
<pdfrwt beam="1">  1       -4 0.56217455E-03 0.20005259E+02</pdfrwt>
<totfact> 0.12395420E+06</totfact>
</mgrwt>
</event>
<event>
 5    1  0.1154861E-006  0.2000018E+02  0.7818608E-02  0.1745325E+00
         -4   -1    0    0    0  501 -0.00000000000E+00  0.00000000000E+00  0.83882083654E+01  0.85075519147E+01  0.14200000000E+01 0. -1.
          4   -1    0    0  501    0  0.00000000000E+00 -0.00000000000E+00 -0.11674831594E+02  0.11760871258E+02  0.14200000000E+01 0.  1.
       1023    2    1    2    0    0  0.00000000000E+00  0.00000000000E+00 -0.32866232289E+01  0.20268423173E+02  0.20000177141E+02 0.  0.
        -11    1    3    3    0    0 -0.52205371578E+01 -0.85291304164E+01 -0.16015610040E+01  0.10127441522E+02  0.51100000000E-03 0.  1.
         11    1    3    3    0    0  0.52205371578E+01  0.85291304164E+01 -0.16850622249E+01  0.10140981651E+02  0.51100000000E-03 0. -1.
<mgrwt>
<rscale>  0 0.20000177E+02</rscale>
<asrwt>0</asrwt>
<pdfrwt beam="2">  1        4 0.18119266E-02 0.20000177E+02</pdfrwt>
<pdfrwt beam="1">  1       -4 0.13062923E-02 0.20000177E+02</pdfrwt>
<totfact> 0.12997832E+06</totfact>
</mgrwt>
</event>
<event>
 5    1  0.1154861E-006  0.2000074E+02  0.7818608E-02  0.1745313E+00
         -4   -1    0    0    0  501 -0.00000000000E+00  0.00000000000E+00  0.82154315944E+01  0.83372487238E+01  0.14200000000E+01 0. -1.
          4   -1    0    0  501    0  0.00000000000E+00 -0.00000000000E+00 -0.11919254831E+02  0.12003542632E+02  0.14200000000E+01 0.  1.
       1023    2    1    2    0    0  0.00000000000E+00  0.00000000000E+00 -0.37038232361E+01  0.20340791356E+02  0.20000737147E+02 0.  0.
        -11    1    3    3    0    0 -0.87910825289E+01 -0.47665489346E+01 -0.17856067869E+01  0.10158322334E+02  0.51100000000E-03 0. -1.
         11    1    3    3    0    0  0.87910825289E+01  0.47665489346E+01 -0.19182164492E+01  0.10182469022E+02  0.51100000000E-03 0.  1.
<mgrwt>
<rscale>  0 0.20000737E+02</rscale>
<asrwt>0</asrwt>
<pdfrwt beam="2">  1        4 0.18495857E-02 0.20000737E+02</pdfrwt>
<pdfrwt beam="1">  1       -4 0.12797668E-02 0.20000737E+02</pdfrwt>
<totfact> 0.12992786E+06</totfact>
</mgrwt>
</event>
<event>
 5    1  0.1154861E-006  0.2000046E+02  0.7818608E-02  0.1745319E+00
          4   -1    0    0  501    0  0.00000000000E+00  0.00000000000E+00  0.56294566160E+01  0.58057886451E+01  0.14200000000E+01 0.  1.
         -4   -1    0    0    0  501 -0.00000000000E+00 -0.00000000000E+00 -0.17284694489E+02  0.17342925462E+02  0.14200000000E+01 0. -1.
       1023    2    1    2    0    0  0.00000000000E+00  0.00000000000E+00 -0.11655237873E+02  0.23148714107E+02  0.20000459868E+02 0.  0.
        -11    1    3    3    0    0  0.10400222723E+01 -0.99459956930E+01 -0.58148441959E+01  0.11567925049E+02  0.51100000000E-03 0.  1.
         11    1    3    3    0    0 -0.10400222723E+01  0.99459956930E+01 -0.58403936775E+01  0.11580789059E+02  0.51100000000E-03 0. -1.
<mgrwt>
<rscale>  0 0.20000460E+02</rscale>
<asrwt>0</asrwt>
<pdfrwt beam="1">  1        4 0.88411357E-03 0.20000460E+02</pdfrwt>
<pdfrwt beam="2">  1       -4 0.26772270E-02 0.20000460E+02</pdfrwt>
<totfact> 0.12829474E+06</totfact>
</mgrwt>
</event>
<event>
 5    1  0.1154861E-006  0.2000060E+02  0.7818608E-02  0.1745316E+00
          4   -1    0    0  501    0  0.00000000000E+00  0.00000000000E+00  0.51607885744E+02  0.51627417822E+02  0.14200000000E+01 0. -1.
         -4   -1    0    0    0  501 -0.00000000000E+00 -0.00000000000E+00 -0.16550109722E+01  0.21807020242E+01  0.14200000000E+01 0. -1.
       1023    2    1    2    0    0  0.00000000000E+00  0.00000000000E+00  0.49952874772E+02  0.53808119846E+02  0.20000601576E+02 0.  0.
        -11    1    3    3    0    0 -0.95407386062E+01 -0.29958615475E+01  0.25169242446E+02  0.27083050883E+02  0.51100000000E-03 0. -1.
         11    1    3    3    0    0  0.95407386062E+01  0.29958615475E+01  0.24783632326E+02  0.26725068963E+02  0.51100000000E-03 0.  1.
<mgrwt>
<rscale>  0 0.20000602E+02</rscale>
<asrwt>0</asrwt>
<pdfrwt beam="1">  1        4 0.79816144E-02 0.20000602E+02</pdfrwt>
<pdfrwt beam="2">  1       -4 0.29655734E-03 0.20000602E+02</pdfrwt>
<totfact> 0.11362283E+06</totfact>
</mgrwt>
</event>
<event>
 5    1  0.1154861E-006  0.2000202E+02  0.7818608E-02  0.1745288E+00
         -4   -1    0    0    0  501 -0.00000000000E+00  0.00000000000E+00  0.58908049385E+00  0.15373405050E+01  0.14200000000E+01 0. -1.
          4   -1    0    0  501    0  0.00000000000E+00 -0.00000000000E+00 -0.93117668524E+02  0.93128495055E+02  0.14200000000E+01 0.  1.
       1023    2    1    2    0    0  0.00000000000E+00  0.00000000000E+00 -0.92528588030E+02  0.94665835560E+02  0.20002020387E+02 0.  0.
        -11    1    3    3    0    0 -0.56034994047E+01 -0.82831262870E+01 -0.45772036759E+02  0.46851774097E+02  0.51100000000E-03 0.  1.
         11    1    3    3    0    0  0.56034994047E+01  0.82831262870E+01 -0.46756551271E+02  0.47814061464E+02  0.51100000000E-03 0. -1.
<mgrwt>
<rscale>  0 0.20002020E+02</rscale>
<asrwt>0</asrwt>
<pdfrwt beam="2">  1        4 0.14399565E-01 0.20002020E+02</pdfrwt>
<pdfrwt beam="1">  1       -4 0.16440373E-03 0.20002020E+02</pdfrwt>
<totfact> 0.99538390E+05</totfact>
</mgrwt>
</event>
<event>
 5    1  0.1154861E-006  0.2000078E+02  0.7818608E-02  0.1745313E+00
          4   -1    0    0  501    0  0.00000000000E+00  0.00000000000E+00  0.36697515407E+02  0.36724978380E+02  0.14200000000E+01 0.  1.
         -4   -1    0    0    0  501 -0.00000000000E+00 -0.00000000000E+00 -0.25097031498E+01  0.28835758877E+01  0.14200000000E+01 0. -1.
       1023    2    1    2    0    0  0.00000000000E+00  0.00000000000E+00  0.34187812257E+02  0.39608554268E+02  0.20000776592E+02 0.  0.
        -11    1    3    3    0    0 -0.75968475253E+01  0.65034298957E+01  0.17029034030E+02  0.19748283292E+02  0.51100000000E-03 0. -1.
         11    1    3    3    0    0  0.75968475253E+01 -0.65034298957E+01  0.17158778227E+02  0.19860270976E+02  0.51100000000E-03 0.  1.
<mgrwt>
<rscale>  0 0.20000777E+02</rscale>
<asrwt>0</asrwt>
<pdfrwt beam="1">  1        4 0.56766435E-02 0.20000777E+02</pdfrwt>
<pdfrwt beam="2">  1       -4 0.41698016E-03 0.20000777E+02</pdfrwt>
<totfact> 0.11979926E+06</totfact>
</mgrwt>
</event>
<event>
 5    1  0.1154861E-006  0.2000677E+02  0.7818608E-02  0.1745193E+00
         -4   -1    0    0    0  501 -0.00000000000E+00  0.00000000000E+00  0.19027119513E+02  0.19080033463E+02  0.14200000000E+01 0.  1.
          4   -1    0    0  501    0  0.00000000000E+00 -0.00000000000E+00 -0.51019001366E+01  0.52958271312E+01  0.14200000000E+01 0. -1.
       1023    2    1    2    0    0  0.00000000000E+00  0.00000000000E+00  0.13925219377E+02  0.24375860595E+02  0.20006769980E+02 0.  0.
        -11    1    3    3    0    0  0.99975924617E+01  0.26389845882E+00  0.72245291413E+01  0.12337557254E+02  0.51100000000E-03 0.  1.
         11    1    3    3    0    0 -0.99975924617E+01 -0.26389845882E+00  0.67006902352E+01  0.12038303340E+02  0.51100000000E-03 0. -1.
<mgrwt>
<rscale>  0 0.20006770E+02</rscale>
<asrwt>0</asrwt>
<pdfrwt beam="2">  1        4 0.80389547E-03 0.20006770E+02</pdfrwt>
<pdfrwt beam="1">  1       -4 0.29462369E-02 0.20006770E+02</pdfrwt>
<totfact> 0.12751790E+06</totfact>
</mgrwt>
</event>
<event>
 5    1  0.1163300E-006  0.2000188E+02  0.7818608E-02  0.1745291E+00
         -4   -1    0    0    0  501 -0.00000000000E+00  0.00000000000E+00  0.14375045222E+02  0.14445010389E+02  0.14200000000E+01 0. -1.
          4   -1    0    0  501    0  0.00000000000E+00 -0.00000000000E+00 -0.67974042311E+01  0.69441417239E+01  0.14200000000E+01 0.  1.
       1023    2    1    2    0    0  0.00000000000E+00  0.00000000000E+00  0.75776409907E+01  0.21389152113E+02  0.20001879539E+02 0.  0.
        -11    1    3    3    0    0 -0.11282691938E+01  0.99368120721E+01  0.38686326990E+01  0.10722851521E+02  0.51100000000E-03 0. -1.
         11    1    3    3    0    0  0.11282691938E+01 -0.99368120721E+01  0.37090082918E+01  0.10666300591E+02  0.51100000000E-03 0.  1.
<mgrwt>
<rscale>  0 0.20001880E+02</rscale>
<asrwt>0</asrwt>
<pdfrwt beam="2">  1        4 0.10624239E-02 0.20001880E+02</pdfrwt>
<pdfrwt beam="1">  1       -4 0.22282149E-02 0.20001880E+02</pdfrwt>
<totfact> 0.12929379E+06</totfact>
</mgrwt>
</event>
<event>
 5    1  0.1168734E-006  0.2000217E+02  0.7818608E-02  0.1745285E+00
          4   -1    0    0  501    0  0.00000000000E+00  0.00000000000E+00  0.68043445921E+01  0.69509355721E+01  0.14200000000E+01 0.  1.
         -4   -1    0    0    0  501 -0.00000000000E+00 -0.00000000000E+00 -0.14361044819E+02  0.14431077863E+02  0.14200000000E+01 0. -1.
       1023    2    1    2    0    0  0.00000000000E+00  0.00000000000E+00 -0.75567002266E+01  0.21382013435E+02  0.20002169388E+02 0.  0.
        -11    1    3    3    0    0  0.93724375639E+01 -0.34893227485E+01 -0.37130136983E+01  0.10667915922E+02  0.51100000000E-03 0. -1.
         11    1    3    3    0    0 -0.93724375639E+01  0.34893227485E+01 -0.38436865283E+01  0.10714097513E+02  0.51100000000E-03 0.  1.
<mgrwt>
<rscale>  0 0.20002169E+02</rscale>
<asrwt>0</asrwt>
<pdfrwt beam="1">  1        4 0.10634856E-02 0.20002169E+02</pdfrwt>
<pdfrwt beam="2">  1       -4 0.22260549E-02 0.20002169E+02</pdfrwt>
<totfact> 0.12929415E+06</totfact>
</mgrwt>
</event>
<event>
 5    1  0.1154861E-006  0.2000684E+02  0.7818608E-02  0.1745192E+00
         -4   -1    0    0    0  501 -0.00000000000E+00  0.00000000000E+00  0.82783283843E+02  0.82795461735E+02  0.14200000000E+01 0.  1.
          4   -1    0    0  501    0  0.00000000000E+00 -0.00000000000E+00 -0.77519027263E+00  0.16178133263E+01  0.14200000000E+01 0. -1.
       1023    2    1    2    0    0  0.00000000000E+00  0.00000000000E+00  0.82008093571E+02  0.84413275061E+02  0.20006838717E+02 0.  0.
        -11    1    3    3    0    0 -0.49316650777E+01  0.87031867687E+01  0.41173774443E+02  0.42371529150E+02  0.51100000000E-03 0. -1.
         11    1    3    3    0    0  0.49316650777E+01 -0.87031867687E+01  0.40834319128E+02  0.42041745911E+02  0.51100000000E-03 0.  1.
<mgrwt>
<rscale>  0 0.20006839E+02</rscale>
<asrwt>0</asrwt>
<pdfrwt beam="2">  1        4 0.18501401E-03 0.20006839E+02</pdfrwt>
<pdfrwt beam="1">  1       -4 0.12801640E-01 0.20006839E+02</pdfrwt>
<totfact> 0.10262207E+06</totfact>
</mgrwt>
</event>
<event>
 5    1  0.1179203E-006  0.2000233E+02  0.7818608E-02  0.1745282E+00
         -4   -1    0    0    0  501 -0.00000000000E+00  0.00000000000E+00  0.19047283621E+02  0.19100141710E+02  0.14200000000E+01 0. -1.
          4   -1    0    0  501    0  0.00000000000E+00 -0.00000000000E+00 -0.50939385159E+01  0.52881574867E+01  0.14200000000E+01 0.  1.
       1023    2    1    2    0    0  0.00000000000E+00  0.00000000000E+00  0.13953345105E+02  0.24388299196E+02  0.20002332316E+02 0.  0.
        -11    1    3    3    0    0  0.85175790966E+00  0.99638954063E+01  0.71430532734E+01  0.12289341460E+02  0.51100000000E-03 0. -1.
         11    1    3    3    0    0 -0.85175790966E+00 -0.99638954063E+01  0.68102918316E+01  0.12098957736E+02  0.51100000000E-03 0.  1.
<mgrwt>
<rscale>  0 0.20002332E+02</rscale>
<asrwt>0</asrwt>
<pdfrwt beam="2">  1        4 0.80268877E-03 0.20002332E+02</pdfrwt>
<pdfrwt beam="1">  1       -4 0.29493573E-02 0.20002332E+02</pdfrwt>
<totfact> 0.12756853E+06</totfact>
</mgrwt>
</event>
<event>
 5    1  0.1154861E-006  0.2000042E+02  0.7818608E-02  0.1745320E+00
          4   -1    0    0  501    0  0.00000000000E+00  0.00000000000E+00  0.35010818476E+00  0.14625237574E+01  0.14200000000E+01 0.  1.
         -4   -1    0    0    0  501 -0.00000000000E+00 -0.00000000000E+00 -0.10922155206E+03  0.10923078244E+03  0.14200000000E+01 0. -1.
       1023    2    1    2    0    0  0.00000000000E+00  0.00000000000E+00 -0.10887144387E+03  0.11069330620E+03  0.20000418680E+02 0.  0.
        -11    1    3    3    0    0  0.85958504558E+01  0.51100814970E+01 -0.54153046723E+02  0.55068630341E+02  0.51100000000E-03 0. -1.
         11    1    3    3    0    0 -0.85958504558E+01 -0.51100814970E+01 -0.54718397148E+02  0.55624675861E+02  0.51100000000E-03 0.  1.
<mgrwt>
<rscale>  0 0.20000419E+02</rscale>
<asrwt>0</asrwt>
<pdfrwt beam="1">  1        4 0.14014334E-03 0.20000419E+02</pdfrwt>
<pdfrwt beam="2">  1       -4 0.16889586E-01 0.20000419E+02</pdfrwt>
<totfact> 0.95064014E+05</totfact>
</mgrwt>
</event>
<event>
 5    1  0.1154861E-006  0.2000602E+02  0.7818608E-02  0.1745208E+00
         -4   -1    0    0    0  501 -0.00000000000E+00  0.00000000000E+00  0.19070146299E+02  0.19122941193E+02  0.14200000000E+01 0.  1.
          4   -1    0    0  501    0  0.00000000000E+00 -0.00000000000E+00 -0.50895855681E+01  0.52839645395E+01  0.14200000000E+01 0. -1.
       1023    2    1    2    0    0  0.00000000000E+00  0.00000000000E+00  0.13980560731E+02  0.24406905732E+02  0.20006023320E+02 0.  0.
        -11    1    3    3    0    0 -0.21591985481E+01  0.97665561631E+01  0.71265926210E+01  0.12281534118E+02  0.51100000000E-03 0. -1.
         11    1    3    3    0    0  0.21591985481E+01 -0.97665561631E+01  0.68539681097E+01  0.12125371614E+02  0.51100000000E-03 0.  1.
<mgrwt>
<rscale>  0 0.20006023E+02</rscale>
<asrwt>0</asrwt>
<pdfrwt beam="2">  1        4 0.80202655E-03 0.20006023E+02</pdfrwt>
<pdfrwt beam="1">  1       -4 0.29528820E-02 0.20006023E+02</pdfrwt>
<totfact> 0.12751013E+06</totfact>
</mgrwt>
</event>
<event>
 5    1  0.1154861E-006  0.2000030E+02  0.7818608E-02  0.1745322E+00
          4   -1    0    0  501    0  0.00000000000E+00  0.00000000000E+00  0.18662399164E+01  0.23450482778E+01  0.14200000000E+01 0. -1.
         -4   -1    0    0    0  501 -0.00000000000E+00 -0.00000000000E+00 -0.47002063842E+02  0.47023509072E+02  0.14200000000E+01 0.  1.
       1023    2    1    2    0    0  0.00000000000E+00  0.00000000000E+00 -0.45135823926E+02  0.49368557349E+02  0.20000296331E+02 0.  0.
        -11    1    3    3    0    0  0.96278851436E+01  0.27029045271E+01 -0.22649699123E+02  0.24759053613E+02  0.51100000000E-03 0.  1.
         11    1    3    3    0    0 -0.96278851436E+01 -0.27029045271E+01 -0.22486124803E+02  0.24609503736E+02  0.51100000000E-03 0. -1.
<mgrwt>
<rscale>  0 0.20000296E+02</rscale>
<asrwt>0</asrwt>
<pdfrwt beam="1">  1        4 0.32559491E-03 0.20000296E+02</pdfrwt>
<pdfrwt beam="2">  1       -4 0.72695670E-02 0.20000296E+02</pdfrwt>
<totfact> 0.11546509E+06</totfact>
</mgrwt>
</event>
<event>
 5    1  0.1154861E-006  0.2000075E+02  0.7818608E-02  0.1745313E+00
          4   -1    0    0  501    0  0.00000000000E+00  0.00000000000E+00  0.12495710275E+01  0.18915146715E+01  0.14200000000E+01 0.  1.
         -4   -1    0    0    0  501 -0.00000000000E+00 -0.00000000000E+00 -0.63025459109E+02  0.63041453789E+02  0.14200000000E+01 0.  1.
       1023    2    1    2    0    0  0.00000000000E+00  0.00000000000E+00 -0.61775888081E+02  0.64932968461E+02  0.20000751109E+02 0.  0.
        -11    1    3    3    0    0  0.57462224479E+01 -0.81845470548E+01 -0.30756949561E+02  0.32341858782E+02  0.51100000000E-03 0.  1.
         11    1    3    3    0    0 -0.57462224479E+01  0.81845470548E+01 -0.31018938520E+02  0.32591109679E+02  0.51100000000E-03 0. -1.
<mgrwt>
<rscale>  0 0.20000751E+02</rscale>
<asrwt>0</asrwt>
<pdfrwt beam="1">  1        4 0.24285239E-03 0.20000751E+02</pdfrwt>
<pdfrwt beam="2">  1       -4 0.97468331E-02 0.20000751E+02</pdfrwt>
<totfact> 0.10932608E+06</totfact>
</mgrwt>
</event>
<event>
 5    1  0.1154861E-006  0.2000010E+02  0.7818608E-02  0.1745326E+00
          4   -1    0    0  501    0  0.00000000000E+00  0.00000000000E+00  0.94334945626E+00  0.17047897808E+01  0.14200000000E+01 0.  1.
         -4   -1    0    0    0  501 -0.00000000000E+00 -0.00000000000E+00 -0.74755370688E+02  0.74768856128E+02  0.14200000000E+01 0. -1.
       1023    2    1    2    0    0  0.00000000000E+00  0.00000000000E+00 -0.73812021232E+02  0.76473645909E+02  0.20000101007E+02 0.  0.
        -11    1    3    3    0    0  0.90898673195E+01  0.41683317456E+01 -0.36836300271E+02  0.38169538841E+02  0.51100000000E-03 0. -1.
         11    1    3    3    0    0 -0.90898673195E+01 -0.41683317456E+01 -0.36975720961E+02  0.38304107068E+02  0.51100000000E-03 0.  1.
<mgrwt>
<rscale>  0 0.20000101E+02</rscale>
<asrwt>0</asrwt>
<pdfrwt beam="1">  1        4 0.20474042E-03 0.20000101E+02</pdfrwt>
<pdfrwt beam="2">  1       -4 0.11560433E-01 0.20000101E+02</pdfrwt>
<totfact> 0.10527858E+06</totfact>
</mgrwt>
</event>
<event>
 5    1  0.1154861E-006  0.2000003E+02  0.7818608E-02  0.1745327E+00
         -4   -1    0    0    0  501 -0.00000000000E+00  0.00000000000E+00  0.12241069784E+01  0.18747900935E+01  0.14200000000E+01 0. -1.
          4   -1    0    0  501    0  0.00000000000E+00 -0.00000000000E+00 -0.63879078829E+02  0.63894859824E+02  0.14200000000E+01 0.  1.
       1023    2    1    2    0    0  0.00000000000E+00  0.00000000000E+00 -0.62654971850E+02  0.65769649918E+02  0.20000033820E+02 0.  0.
        -11    1    3    3    0    0  0.51805862653E+01  0.85534518775E+01 -0.31268214566E+02  0.32828360536E+02  0.51100000000E-03 0.  1.
         11    1    3    3    0    0 -0.51805862653E+01 -0.85534518775E+01 -0.31386757284E+02  0.32941289382E+02  0.51100000000E-03 0. -1.
<mgrwt>
<rscale>  0 0.20000034E+02</rscale>
<asrwt>0</asrwt>
<pdfrwt beam="2">  1        4 0.98788150E-02 0.20000034E+02</pdfrwt>
<pdfrwt beam="1">  1       -4 0.23959067E-03 0.20000034E+02</pdfrwt>
<totfact> 0.10902710E+06</totfact>
</mgrwt>
</event>
<event>
 5    1  0.1154861E-006  0.2000082E+02  0.7818608E-02  0.1745312E+00
          4   -1    0    0  501    0  0.00000000000E+00  0.00000000000E+00  0.11542228399E+03  0.11543101854E+03  0.14200000000E+01 0. -1.
         -4   -1    0    0    0  501 -0.00000000000E+00 -0.00000000000E+00 -0.26990657645E+00  0.14454236611E+01  0.14200000000E+01 0.  1.
       1023    2    1    2    0    0  0.00000000000E+00  0.00000000000E+00  0.11515237741E+03  0.11687644220E+03  0.20000817930E+02 0.  0.
        -11    1    3    3    0    0  0.99408578313E+01 -0.10895694015E+01  0.57464806738E+02  0.58328482147E+02  0.51100000000E-03 0. -1.
         11    1    3    3    0    0 -0.99408578313E+01  0.10895694015E+01  0.57687570674E+02  0.58547960053E+02  0.51100000000E-03 0.  1.
<mgrwt>
<rscale>  0 0.20000818E+02</rscale>
<asrwt>0</asrwt>
<pdfrwt beam="1">  1        4 0.17848361E-01 0.20000818E+02</pdfrwt>
<pdfrwt beam="2">  1       -4 0.13262044E-03 0.20000818E+02</pdfrwt>
<totfact> 0.93444363E+05</totfact>
</mgrwt>
</event>
<event>
 5    1  0.1154861E-006  0.2000019E+02  0.7818608E-02  0.1745324E+00
         -4   -1    0    0    0  501 -0.00000000000E+00  0.00000000000E+00  0.41408012824E+02  0.41432353615E+02  0.14200000000E+01 0.  1.
          4   -1    0    0  501    0  0.00000000000E+00 -0.00000000000E+00 -0.21789991619E+01  0.26008531961E+01  0.14200000000E+01 0. -1.
       1023    2    1    2    0    0  0.00000000000E+00  0.00000000000E+00  0.39229013663E+02  0.44033206811E+02  0.20000194727E+02 0.  0.
        -11    1    3    3    0    0 -0.61206223152E+01 -0.79081934830E+01  0.19658831988E+02  0.22056092516E+02  0.51100000000E-03 0. -1.
         11    1    3    3    0    0  0.61206223152E+01  0.79081934830E+01  0.19570181675E+02  0.21977114295E+02  0.51100000000E-03 0.  1.
<mgrwt>
<rscale>  0 0.20000195E+02</rscale>
<asrwt>0</asrwt>
<pdfrwt beam="2">  1        4 0.36955334E-03 0.20000195E+02</pdfrwt>
<pdfrwt beam="1">  1       -4 0.64047858E-02 0.20000195E+02</pdfrwt>
<totfact> 0.11778540E+06</totfact>
</mgrwt>
</event>
<event>
 5    1  0.1154861E-006  0.2000062E+02  0.7818608E-02  0.1745316E+00
          4   -1    0    0  501    0  0.00000000000E+00  0.00000000000E+00  0.21710360858E+00  0.14365006011E+01  0.14200000000E+01 0. -1.
         -4   -1    0    0    0  501 -0.00000000000E+00 -0.00000000000E+00 -0.11972873358E+03  0.11973715398E+03  0.14200000000E+01 0.  1.
       1023    2    1    2    0    0  0.00000000000E+00  0.00000000000E+00 -0.11951162997E+03  0.12117365458E+03  0.20000621679E+02 0.  0.
        -11    1    3    3    0    0 -0.58664419858E+01  0.80988316630E+01 -0.59761058680E+02  0.60591999065E+02  0.51100000000E-03 0. -1.
         11    1    3    3    0    0  0.58664419858E+01 -0.80988316630E+01 -0.59750571288E+02  0.60581655519E+02  0.51100000000E-03 0.  1.
<mgrwt>
<rscale>  0 0.20000622E+02</rscale>
<asrwt>0</asrwt>
<pdfrwt beam="1">  1        4 0.12784814E-03 0.20000622E+02</pdfrwt>
<pdfrwt beam="2">  1       -4 0.18514239E-01 0.20000622E+02</pdfrwt>
<totfact> 0.92357894E+05</totfact>
</mgrwt>
</event>
<event>
 5    1  0.1184000E-006  0.2000100E+02  0.7818608E-02  0.1745308E+00
          4   -1    0    0  501    0  0.00000000000E+00  0.00000000000E+00  0.24840621785E+02  0.24881175428E+02  0.14200000000E+01 0. -1.
         -4   -1    0    0    0  501 -0.00000000000E+00 -0.00000000000E+00 -0.38555366873E+01  0.41087179445E+01  0.14200000000E+01 0.  1.
       1023    2    1    2    0    0  0.00000000000E+00  0.00000000000E+00  0.20985085098E+02  0.28989893372E+02  0.20001003004E+02 0.  0.
        -11    1    3    3    0    0 -0.99237073156E+01  0.12363603242E+01  0.10436851984E+02  0.14454633628E+02  0.51100000000E-03 0. -1.
         11    1    3    3    0    0  0.99237073156E+01 -0.12363603242E+01  0.10548233114E+02  0.14535259744E+02  0.51100000000E-03 0.  1.
<mgrwt>
<rscale>  0 0.20001003E+02</rscale>
<asrwt>0</asrwt>
<pdfrwt beam="1">  1        4 0.38442291E-02 0.20001003E+02</pdfrwt>
<pdfrwt beam="2">  1       -4 0.61575448E-03 0.20001003E+02</pdfrwt>
<totfact> 0.12507563E+06</totfact>
</mgrwt>
</event>
<event>
 4    1  0.1154861E-006  0.2002103E+02  0.7818608E-02  0.1744910E+00
         -4   -1    0    0    0  501 -0.00000000000E+00  0.00000000000E+00  0.56332690756E+01  0.58094853884E+01  0.14200000000E+01 0. -1.
          4   -1    0    0  501    0  0.00000000000E+00 -0.00000000000E+00 -0.17309353878E+02  0.17367502171E+02  0.14200000000E+01 0.  1.
        -11    1    1    2    0    0  0.97525639664E+01 -0.22329959035E+01 -0.54511886932E+01  0.11393604919E+02  0.51100000000E-03 0. -1.
         11    1    1    2    0    0 -0.97525639664E+01  0.22329959035E+01 -0.62248961092E+01  0.11783382641E+02  0.51100000000E-03 0.  1.
<mgrwt>
<rscale>  0 0.20021034E+02</rscale>
<asrwt>0</asrwt>
<pdfrwt beam="2">  1        4 0.26810055E-02 0.20021034E+02</pdfrwt>
<pdfrwt beam="1">  1       -4 0.88468484E-03 0.20021034E+02</pdfrwt>
<totfact> 0.12801002E+06</totfact>
</mgrwt>
</event>
<event>
 5    1  0.1170135E-006  0.2000179E+02  0.7818608E-02  0.1745292E+00
         -4   -1    0    0    0  501 -0.00000000000E+00  0.00000000000E+00  0.81648392448E+01  0.82874000684E+01  0.14200000000E+01 0.  1.
          4   -1    0    0  501    0  0.00000000000E+00 -0.00000000000E+00 -0.11993819620E+02  0.12077587055E+02  0.14200000000E+01 0. -1.
       1023    2    1    2    0    0  0.00000000000E+00  0.00000000000E+00 -0.38289803750E+01  0.20364987124E+02  0.20001790166E+02 0.  0.
        -11    1    3    3    0    0  0.84363401722E+01 -0.53692173961E+01 -0.20494537662E+01  0.10207869119E+02  0.51100000000E-03 0.  1.
         11    1    3    3    0    0 -0.84363401722E+01  0.53692173961E+01 -0.17795266088E+01  0.10157118005E+02  0.51100000000E-03 0. -1.
<mgrwt>
<rscale>  0 0.20001790E+02</rscale>
<asrwt>0</asrwt>
<pdfrwt beam="2">  1        4 0.18610744E-02 0.20001790E+02</pdfrwt>
<pdfrwt beam="1">  1       -4 0.12720005E-02 0.20001790E+02</pdfrwt>
<totfact> 0.12989953E+06</totfact>
</mgrwt>
</event>
<event>
 5    1  0.1154861E-006  0.2000092E+02  0.7818608E-02  0.1745310E+00
          4   -1    0    0  501    0  0.00000000000E+00  0.00000000000E+00  0.39926009631E+02  0.39951253360E+02  0.14200000000E+01 0. -1.
         -4   -1    0    0    0  501 -0.00000000000E+00 -0.00000000000E+00 -0.22753962058E+01  0.26821312222E+01  0.14200000000E+01 0.  1.
       1023    2    1    2    0    0  0.00000000000E+00  0.00000000000E+00  0.37650613425E+02  0.42633384582E+02  0.20000919720E+02 0.  0.
        -11    1    3    3    0    0  0.32484419225E+01 -0.94578918134E+01  0.18977601105E+02  0.21451187296E+02  0.51100000000E-03 0.  1.
         11    1    3    3    0    0 -0.32484419225E+01  0.94578918134E+01  0.18673012321E+02  0.21182197286E+02  0.51100000000E-03 0. -1.
<mgrwt>
<rscale>  0 0.20000920E+02</rscale>
<asrwt>0</asrwt>
<pdfrwt beam="1">  1        4 0.61756920E-02 0.20000920E+02</pdfrwt>
<pdfrwt beam="2">  1       -4 0.38329010E-03 0.20000920E+02</pdfrwt>
<totfact> 0.11840650E+06</totfact>
</mgrwt>
</event>
<event>
 5    1  0.1154861E-006  0.2000143E+02  0.7818608E-02  0.1745300E+00
         -4   -1    0    0    0  501 -0.00000000000E+00  0.00000000000E+00  0.90518765600E+02  0.90529902936E+02  0.14200000000E+01 0. -1.
          4   -1    0    0  501    0  0.00000000000E+00 -0.00000000000E+00 -0.63274113045E+00  0.15545936248E+01  0.14200000000E+01 0.  1.
       1023    2    1    2    0    0  0.00000000000E+00  0.00000000000E+00  0.89886024469E+02  0.92084496561E+02  0.20001427750E+02 0.  0.
        -11    1    3    3    0    0  0.10000263241E+02 -0.87983170485E-01  0.44778824938E+02  0.45881980875E+02  0.51100000000E-03 0.  1.
         11    1    3    3    0    0 -0.10000263241E+02  0.87983170485E-01  0.45107199531E+02  0.46202515686E+02  0.51100000000E-03 0. -1.
<mgrwt>
<rscale>  0 0.20001428E+02</rscale>
<asrwt>0</asrwt>
<pdfrwt beam="2">  1        4 0.16911325E-03 0.20001428E+02</pdfrwt>
<pdfrwt beam="1">  1       -4 0.13997731E-01 0.20001428E+02</pdfrwt>
<totfact> 0.10031239E+06</totfact>
</mgrwt>
</event>
<event>
 4    1  0.1154861E-006  0.2002529E+02  0.7818608E-02  0.1744826E+00
         -4   -1    0    0    0  501 -0.00000000000E+00  0.00000000000E+00  0.45598563423E+01  0.47758444135E+01  0.14200000000E+01 0.  1.
          4   -1    0    0  501    0  0.00000000000E+00 -0.00000000000E+00 -0.21237104945E+02  0.21284525516E+02  0.14200000000E+01 0. -1.
        -11    1    1    2    0    0  0.55523669681E+01  0.83254845096E+01 -0.87714035686E+01  0.13307140643E+02  0.51100000000E-03 0.  1.
         11    1    1    2    0    0 -0.55523669681E+01 -0.83254845096E+01 -0.79058450338E+01  0.12753229286E+02  0.51100000000E-03 0. -1.
<mgrwt>
<rscale>  0 0.20025291E+02</rscale>
<asrwt>0</asrwt>
<pdfrwt beam="2">  1        4 0.32875091E-02 0.20025291E+02</pdfrwt>
<pdfrwt beam="1">  1       -4 0.72177857E-03 0.20025291E+02</pdfrwt>
<totfact> 0.12634301E+06</totfact>
</mgrwt>
</event>
<event>
 4    1  0.1154861E-006  0.2008972E+02  0.7818608E-02  0.1743550E+00
          4   -1    0    0  501    0  0.00000000000E+00  0.00000000000E+00  0.21395946199E+01  0.25679301271E+01  0.14200000000E+01 0.  1.
         -4   -1    0    0    0  501 -0.00000000000E+00 -0.00000000000E+00 -0.42425921441E+02  0.42449678563E+02  0.14200000000E+01 0. -1.
        -11    1    1    2    0    0  0.24397198508E+01  0.97439615997E+01 -0.20037582730E+02  0.22414320033E+02  0.51100000000E-03 0.  1.
         11    1    1    2    0    0 -0.24397198508E+01 -0.97439615997E+01 -0.20248744091E+02  0.22603288658E+02  0.51100000000E-03 0. -1.
<mgrwt>
<rscale>  0 0.20089723E+02</rscale>
<asrwt>0</asrwt>
<pdfrwt beam="1">  1        4 0.36394479E-03 0.20089723E+02</pdfrwt>
<pdfrwt beam="2">  1       -4 0.65618406E-02 0.20089723E+02</pdfrwt>
<totfact> 0.11629305E+06</totfact>
</mgrwt>
</event>
<event>
 5    1  0.1154861E-006  0.2000279E+02  0.7818608E-02  0.1745273E+00
         -4   -1    0    0    0  501 -0.00000000000E+00  0.00000000000E+00  0.17193505868E+01  0.22299252096E+01  0.14200000000E+01 0.  1.
          4   -1    0    0  501    0  0.00000000000E+00 -0.00000000000E+00 -0.50134414867E+02  0.50154520774E+02  0.14200000000E+01 0. -1.
       1023    2    1    2    0    0  0.00000000000E+00  0.00000000000E+00 -0.48415064280E+02  0.52384445984E+02  0.20002793098E+02 0.  0.
        -11    1    3    3    0    0  0.93782068043E+01  0.34752209873E+01 -0.24199719317E+02  0.26185002178E+02  0.51100000000E-03 0.  1.
         11    1    3    3    0    0 -0.93782068043E+01 -0.34752209873E+01 -0.24215344963E+02  0.26199443806E+02  0.51100000000E-03 0. -1.
<mgrwt>
<rscale>  0 0.20002793E+02</rscale>
<asrwt>0</asrwt>
<pdfrwt beam="2">  1        4 0.77538075E-02 0.20002793E+02</pdfrwt>
<pdfrwt beam="1">  1       -4 0.30533709E-03 0.20002793E+02</pdfrwt>
<totfact> 0.11417874E+06</totfact>
</mgrwt>
</event>
<event>
 5    1  0.1154861E-006  0.2000542E+02  0.7818608E-02  0.1745220E+00
         -4   -1    0    0    0  501 -0.00000000000E+00  0.00000000000E+00  0.36420850416E+00  0.14659631082E+01  0.14200000000E+01 0. -1.
          4   -1    0    0  501    0  0.00000000000E+00 -0.00000000000E+00 -0.10822935476E+03  0.10823866977E+03  0.14200000000E+01 0.  1.
       1023    2    1    2    0    0  0.00000000000E+00  0.00000000000E+00 -0.10786514626E+03  0.10970463287E+03  0.20005416674E+02 0.  0.
        -11    1    3    3    0    0  0.93226952435E+01  0.36187358875E+01 -0.55112251680E+02  0.56012214574E+02  0.51100000000E-03 0.  1.
         11    1    3    3    0    0 -0.93226952435E+01 -0.36187358875E+01 -0.52752894580E+02  0.53692418300E+02  0.51100000000E-03 0. -1.
<mgrwt>
<rscale>  0 0.20005417E+02</rscale>
<asrwt>0</asrwt>
<pdfrwt beam="2">  1        4 0.16736127E-01 0.20005417E+02</pdfrwt>
<pdfrwt beam="1">  1       -4 0.14149906E-03 0.20005417E+02</pdfrwt>
<totfact> 0.95280682E+05</totfact>
</mgrwt>
</event>
<event>
 5    1  0.1154861E-006  0.2000362E+02  0.7818608E-02  0.1745256E+00
         -4   -1    0    0    0  501 -0.00000000000E+00  0.00000000000E+00  0.25760194749E+02  0.25799302966E+02  0.14200000000E+01 0. -1.
          4   -1    0    0  501    0  0.00000000000E+00 -0.00000000000E+00 -0.37099737881E+01  0.39724432668E+01  0.14200000000E+01 0.  1.
       1023    2    1    2    0    0  0.00000000000E+00  0.00000000000E+00  0.22050220961E+02  0.29771746233E+02  0.20003615406E+02 0.  0.
        -11    1    3    3    0    0 -0.47184719425E+01  0.88187202071E+01  0.11097313115E+02  0.14939349457E+02  0.51100000000E-03 0.  1.
         11    1    3    3    0    0  0.47184719425E+01 -0.88187202071E+01  0.10952907846E+02  0.14832396776E+02  0.51100000000E-03 0. -1.
<mgrwt>
<rscale>  0 0.20003615E+02</rscale>
<asrwt>0</asrwt>
<pdfrwt beam="2">  1        4 0.59396348E-03 0.20003615E+02</pdfrwt>
<pdfrwt beam="1">  1       -4 0.39863052E-02 0.20003615E+02</pdfrwt>
<totfact> 0.12463100E+06</totfact>
</mgrwt>
</event>
<event>
 5    1  0.1154861E-006  0.2000066E+02  0.7818608E-02  0.1745315E+00
          4   -1    0    0  501    0  0.00000000000E+00  0.00000000000E+00  0.10942635809E+02  0.11034386184E+02  0.14200000000E+01 0.  1.
         -4   -1    0    0    0  501 -0.00000000000E+00 -0.00000000000E+00 -0.89530763127E+01  0.90649862361E+01  0.14200000000E+01 0. -1.
       1023    2    1    2    0    0  0.00000000000E+00  0.00000000000E+00  0.19895594964E+01  0.20099372420E+02  0.20000660606E+02 0.  0.
        -11    1    3    3    0    0 -0.81978311853E+01  0.57272957236E+01  0.97878072504E+00  0.10048102528E+02  0.51100000000E-03 0.  1.
         11    1    3    3    0    0  0.81978311853E+01 -0.57272957236E+01  0.10107787714E+01  0.10051269892E+02  0.51100000000E-03 0. -1.
<mgrwt>
<rscale>  0 0.20000661E+02</rscale>
<asrwt>0</asrwt>
<pdfrwt beam="1">  1        4 0.16991486E-02 0.20000661E+02</pdfrwt>
<pdfrwt beam="2">  1       -4 0.13930625E-02 0.20000661E+02</pdfrwt>
<totfact> 0.13007272E+06</totfact>
</mgrwt>
</event>
<event>
 5    1  0.1187126E-006  0.2000081E+02  0.7818608E-02  0.1745312E+00
          4   -1    0    0  501    0  0.00000000000E+00  0.00000000000E+00  0.55447789486E+01  0.57237202577E+01  0.14200000000E+01 0. -1.
         -4   -1    0    0    0  501 -0.00000000000E+00 -0.00000000000E+00 -0.17541950120E+02  0.17599329931E+02  0.14200000000E+01 0.  1.
       1023    2    1    2    0    0  0.00000000000E+00  0.00000000000E+00 -0.11997171172E+02  0.23323050189E+02  0.20000813833E+02 0.  0.
        -11    1    3    3    0    0  0.50177641133E+01 -0.86500157171E+01 -0.58982081652E+01  0.11609891835E+02  0.51100000000E-03 0. -1.
         11    1    3    3    0    0 -0.50177641133E+01  0.86500157171E+01 -0.60989630067E+01  0.11713158354E+02  0.51100000000E-03 0.  1.
<mgrwt>
<rscale>  0 0.20000814E+02</rscale>
<asrwt>0</asrwt>
<pdfrwt beam="1">  1        4 0.87122147E-03 0.20000814E+02</pdfrwt>
<pdfrwt beam="2">  1       -4 0.27169401E-02 0.20000814E+02</pdfrwt>
<totfact> 0.12819069E+06</totfact>
</mgrwt>
</event>
<event>
 5    1  0.1162456E-006  0.2000051E+02  0.7818608E-02  0.1745318E+00
         -4   -1    0    0    0  501 -0.00000000000E+00  0.00000000000E+00  0.30055610684E+01  0.33241235440E+01  0.14200000000E+01 0. -1.
          4   -1    0    0  501    0  0.00000000000E+00 -0.00000000000E+00 -0.31263270346E+02  0.31295502436E+02  0.14200000000E+01 0.  1.
       1023    2    1    2    0    0  0.00000000000E+00  0.00000000000E+00 -0.28257709278E+02  0.34619625980E+02  0.20000509228E+02 0.  0.
        -11    1    3    3    0    0 -0.39820211974E+01  0.91731933839E+01 -0.14186845155E+02  0.17357146810E+02  0.51100000000E-03 0. -1.
         11    1    3    3    0    0  0.39820211974E+01 -0.91731933839E+01 -0.14070864122E+02  0.17262479170E+02  0.51100000000E-03 0.  1.
<mgrwt>
<rscale>  0 0.20000509E+02</rscale>
<asrwt>0</asrwt>
<pdfrwt beam="2">  1        4 0.48367179E-02 0.20000509E+02</pdfrwt>
<pdfrwt beam="1">  1       -4 0.48937823E-03 0.20000509E+02</pdfrwt>
<totfact> 0.12220139E+06</totfact>
</mgrwt>
</event>
<event>
 5    1  0.1154861E-006  0.2000118E+02  0.7818608E-02  0.1745305E+00
         -4   -1    0    0    0  501 -0.00000000000E+00  0.00000000000E+00  0.75537615110E+02  0.75550960924E+02  0.14200000000E+01 0.  1.
          4   -1    0    0  501    0  0.00000000000E+00 -0.00000000000E+00 -0.92584244959E+00  0.16951649600E+01  0.14200000000E+01 0. -1.
       1023    2    1    2    0    0  0.00000000000E+00  0.00000000000E+00  0.74611772661E+02  0.77246125884E+02  0.20001183578E+02 0.  0.
        -11    1    3    3    0    0 -0.61971822029E+01 -0.78489471055E+01  0.37196790549E+02  0.38517687694E+02  0.51100000000E-03 0.  1.
         11    1    3    3    0    0  0.61971822029E+01  0.78489471055E+01  0.37414982112E+02  0.38728438189E+02  0.51100000000E-03 0. -1.
<mgrwt>
<rscale>  0 0.20001184E+02</rscale>
<asrwt>0</asrwt>
<pdfrwt beam="2">  1        4 0.20264247E-03 0.20001184E+02</pdfrwt>
<pdfrwt beam="1">  1       -4 0.11681382E-01 0.20001184E+02</pdfrwt>
<totfact> 0.10500864E+06</totfact>
</mgrwt>
</event>
<event>
 5    1  0.1154861E-006  0.2000146E+02  0.7818608E-02  0.1745299E+00
         -4   -1    0    0    0  501 -0.00000000000E+00  0.00000000000E+00  0.12419846087E+02  0.12500759050E+02  0.14200000000E+01 0. -1.
          4   -1    0    0  501    0  0.00000000000E+00 -0.00000000000E+00 -0.78820995247E+01  0.80089882580E+01  0.14200000000E+01 0.  1.
       1023    2    1    2    0    0  0.00000000000E+00  0.00000000000E+00  0.45377465622E+01  0.20509747308E+02  0.20001464716E+02 0.  0.
        -11    1    3    3    0    0  0.80606574600E+01 -0.59193746216E+01  0.23079579287E+01  0.10263521065E+02  0.51100000000E-03 0. -1.
         11    1    3    3    0    0 -0.80606574600E+01  0.59193746216E+01  0.22297886334E+01  0.10246226242E+02  0.51100000000E-03 0.  1.
<mgrwt>
<rscale>  0 0.20001465E+02</rscale>
<asrwt>0</asrwt>
<pdfrwt beam="2">  1        4 0.12286154E-02 0.20001465E+02</pdfrwt>
<pdfrwt beam="1">  1       -4 0.19267303E-02 0.20001465E+02</pdfrwt>
<totfact> 0.12981804E+06</totfact>
</mgrwt>
</event>
<event>
 5    1  0.1154861E-006  0.2001211E+02  0.7818608E-02  0.1745087E+00
         -4   -1    0    0    0  501 -0.00000000000E+00  0.00000000000E+00  0.21361044110E+01  0.25650228176E+01  0.14200000000E+01 0.  1.
          4   -1    0    0  501    0  0.00000000000E+00 -0.00000000000E+00 -0.42152564046E+02  0.42176475145E+02  0.14200000000E+01 0. -1.
       1023    2    1    2    0    0  0.00000000000E+00  0.00000000000E+00 -0.40016459635E+02  0.44741497963E+02  0.20012111288E+02 0.  0.
        -11    1    3    3    0    0  0.99353648466E+01  0.11482568659E+01 -0.19333127850E+02  0.21766942854E+02  0.51100000000E-03 0.  1.
         11    1    3    3    0    0 -0.99353648466E+01 -0.11482568659E+01 -0.20683331785E+02  0.22974555109E+02  0.51100000000E-03 0. -1.
<mgrwt>
<rscale>  0 0.20012111E+02</rscale>
<asrwt>0</asrwt>
<pdfrwt beam="2">  1        4 0.65198424E-02 0.20012111E+02</pdfrwt>
<pdfrwt beam="1">  1       -4 0.36346452E-03 0.20012111E+02</pdfrwt>
<totfact> 0.11732890E+06</totfact>
</mgrwt>
</event>
<event>
 5    1  0.1154861E-006  0.2000077E+02  0.7818608E-02  0.1745313E+00
          4   -1    0    0  501    0  0.00000000000E+00  0.00000000000E+00  0.10939919471E+03  0.10940841011E+03  0.14200000000E+01 0. -1.
         -4   -1    0    0    0  501 -0.00000000000E+00 -0.00000000000E+00 -0.34778438852E+00  0.14619692134E+01  0.14200000000E+01 0.  1.
       1023    2    1    2    0    0  0.00000000000E+00  0.00000000000E+00  0.10905141032E+03  0.11087037933E+03  0.20000772950E+02 0.  0.
        -11    1    3    3    0    0  0.92510635674E+01  0.37980834171E+01  0.54466358054E+02  0.55376816220E+02  0.51100000000E-03 0. -1.
         11    1    3    3    0    0 -0.92510635674E+01 -0.37980834171E+01  0.54585052268E+02  0.55493563105E+02  0.51100000000E-03 0.  1.
<mgrwt>
<rscale>  0 0.20000773E+02</rscale>
<asrwt>0</asrwt>
<pdfrwt beam="1">  1        4 0.16917067E-01 0.20000773E+02</pdfrwt>
<pdfrwt beam="2">  1       -4 0.13992064E-03 0.20000773E+02</pdfrwt>
<totfact> 0.95013503E+05</totfact>
</mgrwt>
</event>
<event>
 5    1  0.1232047E-006  0.2000129E+02  0.7818608E-02  0.1745303E+00
         -4   -1    0    0    0  501 -0.00000000000E+00  0.00000000000E+00  0.29596005831E+02  0.29630051656E+02  0.14200000000E+01 0. -1.
          4   -1    0    0  501    0  0.00000000000E+00 -0.00000000000E+00 -0.31924094743E+01  0.34939774257E+01  0.14200000000E+01 0.  1.
       1023    2    1    2    0    0  0.00000000000E+00  0.00000000000E+00  0.26403596356E+02  0.33124029081E+02  0.20001285010E+02 0.  0.
        -11    1    3    3    0    0  0.92362154045E+01 -0.38334694880E+01  0.13038801607E+02  0.16432087845E+02  0.51100000000E-03 0. -1.
         11    1    3    3    0    0 -0.92362154045E+01  0.38334694880E+01  0.13364794749E+02  0.16691941237E+02  0.51100000000E-03 0.  1.
<mgrwt>
<rscale>  0 0.20001285E+02</rscale>
<asrwt>0</asrwt>
<pdfrwt beam="2">  1        4 0.51695635E-03 0.20001285E+02</pdfrwt>
<pdfrwt beam="1">  1       -4 0.45790482E-02 0.20001285E+02</pdfrwt>
<totfact> 0.12293844E+06</totfact>
</mgrwt>
</event>
<event>
 5    1  0.1154861E-006  0.2000516E+02  0.7818608E-02  0.1745225E+00
          4   -1    0    0  501    0  0.00000000000E+00  0.00000000000E+00  0.31179105392E+02  0.31211424399E+02  0.14200000000E+01 0.  1.
         -4   -1    0    0    0  501 -0.00000000000E+00 -0.00000000000E+00 -0.30160895409E+01  0.33336460698E+01  0.14200000000E+01 0. -1.
       1023    2    1    2    0    0  0.00000000000E+00  0.00000000000E+00  0.28163015851E+02  0.34545070469E+02  0.20005160132E+02 0.  0.
        -11    1    3    3    0    0  0.99438906449E+01  0.10719316922E+01  0.13827667136E+02  0.17065590450E+02  0.51100000000E-03 0.  1.
         11    1    3    3    0    0 -0.99438906449E+01 -0.10719316922E+01  0.14335348715E+02  0.17479480019E+02  0.51100000000E-03 0. -1.
<mgrwt>
<rscale>  0 0.20005160E+02</rscale>
<asrwt>0</asrwt>
<pdfrwt beam="1">  1        4 0.48236990E-02 0.20005160E+02</pdfrwt>
<pdfrwt beam="2">  1       -4 0.49092727E-03 0.20005160E+02</pdfrwt>
<totfact> 0.12218067E+06</totfact>
</mgrwt>
</event>
<event>
 5    1  0.1154861E-006  0.2000486E+02  0.7818608E-02  0.1745232E+00
          4   -1    0    0  501    0  0.00000000000E+00  0.00000000000E+00  0.69960986206E+02  0.69975395611E+02  0.14200000000E+01 0. -1.
         -4   -1    0    0    0  501 -0.00000000000E+00 -0.00000000000E+00 -0.10593323525E+01  0.17716052136E+01  0.14200000000E+01 0.  1.
       1023    2    1    2    0    0  0.00000000000E+00  0.00000000000E+00  0.68901653853E+02  0.71747000825E+02  0.20004855000E+02 0.  0.
        -11    1    3    3    0    0  0.55592502179E+01 -0.83131197510E+01  0.35124976831E+02  0.36520914838E+02  0.51100000000E-03 0. -1.
         11    1    3    3    0    0 -0.55592502179E+01  0.83131197510E+01  0.33776677023E+02  0.35226085987E+02  0.51100000000E-03 0.  1.
<mgrwt>
<rscale>  0 0.20004855E+02</rscale>
<asrwt>0</asrwt>
<pdfrwt beam="1">  1        4 0.10819127E-01 0.20004855E+02</pdfrwt>
<pdfrwt beam="2">  1       -4 0.21887285E-03 0.20004855E+02</pdfrwt>
<totfact> 0.10684352E+06</totfact>
</mgrwt>
</event>
<event>
 5    1  0.1154861E-006  0.2000067E+02  0.7818608E-02  0.1745315E+00
         -4   -1    0    0    0  501 -0.00000000000E+00  0.00000000000E+00  0.15094503638E+01  0.20723996721E+01  0.14200000000E+01 0.  1.
          4   -1    0    0  501    0  0.00000000000E+00 -0.00000000000E+00 -0.55267300010E+02  0.55285539252E+02  0.14200000000E+01 0. -1.
       1023    2    1    2    0    0  0.00000000000E+00  0.00000000000E+00 -0.53757849646E+02  0.57357938924E+02  0.20000668965E+02 0.  0.
        -11    1    3    3    0    0  0.15223032388E+01 -0.98837177938E+01 -0.26986416521E+02  0.28779714409E+02  0.51100000000E-03 0. -1.
         11    1    3    3    0    0 -0.15223032388E+01  0.98837177938E+01 -0.26771433125E+02  0.28578224515E+02  0.51100000000E-03 0.  1.
<mgrwt>
<rscale>  0 0.20000669E+02</rscale>
<asrwt>0</asrwt>
<pdfrwt beam="2">  1        4 0.85473670E-02 0.20000669E+02</pdfrwt>
<pdfrwt beam="1">  1       -4 0.27692999E-03 0.20000669E+02</pdfrwt>
<totfact> 0.11220609E+06</totfact>
</mgrwt>
</event>
<event>
 5    1  0.1154861E-006  0.2000367E+02  0.7818608E-02  0.1745255E+00
          4   -1    0    0  501    0  0.00000000000E+00  0.00000000000E+00  0.12089784161E+01  0.18649474016E+01  0.14200000000E+01 0. -1.
         -4   -1    0    0    0  501 -0.00000000000E+00 -0.00000000000E+00 -0.64421780744E+02  0.64437428830E+02  0.14200000000E+01 0.  1.
       1023    2    1    2    0    0  0.00000000000E+00  0.00000000000E+00 -0.63212802328E+02  0.66302376232E+02  0.20003667559E+02 0.  0.
        -11    1    3    3    0    0 -0.50677575240E+01  0.86220508183E+01 -0.32008975195E+02  0.33535002906E+02  0.51100000000E-03 0.  1.
         11    1    3    3    0    0  0.50677575240E+01 -0.86220508183E+01 -0.31203827133E+02  0.32767373326E+02  0.51100000000E-03 0. -1.
<mgrwt>
<rscale>  0 0.20003668E+02</rscale>
<asrwt>0</asrwt>
<pdfrwt beam="1">  1        4 0.23765958E-03 0.20003668E+02</pdfrwt>
<pdfrwt beam="2">  1       -4 0.99627039E-02 0.20003668E+02</pdfrwt>
<totfact> 0.10879313E+06</totfact>
</mgrwt>
</event>
<event>
 5    1  0.1154861E-006  0.2000029E+02  0.7818608E-02  0.1745322E+00
         -4   -1    0    0    0  501 -0.00000000000E+00  0.00000000000E+00  0.40186117718E+01  0.42621169121E+01  0.14200000000E+01 0. -1.
          4   -1    0    0  501    0  0.00000000000E+00 -0.00000000000E+00 -0.23887949186E+02  0.23930117349E+02  0.14200000000E+01 0.  1.
       1023    2    1    2    0    0  0.00000000000E+00  0.00000000000E+00 -0.19869337414E+02  0.28192234261E+02  0.20000287581E+02 0.  0.
        -11    1    3    3    0    0  0.37437259957E+01 -0.92729024849E+01 -0.99711754032E+01  0.14121846339E+02  0.51100000000E-03 0.  1.
         11    1    3    3    0    0 -0.37437259957E+01  0.92729024849E+01 -0.98981620112E+01  0.14070387922E+02  0.51100000000E-03 0. -1.
<mgrwt>
<rscale>  0 0.20000288E+02</rscale>
<asrwt>0</asrwt>
<pdfrwt beam="2">  1        4 0.36970439E-02 0.20000288E+02</pdfrwt>
<pdfrwt beam="1">  1       -4 0.64022285E-03 0.20000288E+02</pdfrwt>
<totfact> 0.12550893E+06</totfact>
</mgrwt>
</event>
<event>
 5    1  0.1154861E-006  0.2000018E+02  0.7818608E-02  0.1745324E+00
         -4   -1    0    0    0  501 -0.00000000000E+00  0.00000000000E+00  0.36454269790E+02  0.36481915875E+02  0.14200000000E+01 0. -1.
          4   -1    0    0  501    0  0.00000000000E+00 -0.00000000000E+00 -0.25287478038E+01  0.29001664530E+01  0.14200000000E+01 0.  1.
       1023    2    1    2    0    0  0.00000000000E+00  0.00000000000E+00  0.33925521986E+02  0.39382082328E+02  0.20000184161E+02 0.  0.
        -11    1    3    3    0    0  0.97521852001E+01  0.22128438787E+01  0.16949240699E+02  0.19679394166E+02  0.51100000000E-03 0.  1.
         11    1    3    3    0    0 -0.97521852001E+01 -0.22128438787E+01  0.16976281287E+02  0.19702688162E+02  0.51100000000E-03 0. -1.
<mgrwt>
<rscale>  0 0.20000184E+02</rscale>
<asrwt>0</asrwt>
<pdfrwt beam="2">  1        4 0.41973543E-03 0.20000184E+02</pdfrwt>
<pdfrwt beam="1">  1       -4 0.56390463E-02 0.20000184E+02</pdfrwt>
<totfact> 0.11991244E+06</totfact>
</mgrwt>
</event>
<event>
 5    1  0.1154861E-006  0.2000050E+02  0.7818608E-02  0.1745318E+00
          4   -1    0    0  501    0  0.00000000000E+00  0.00000000000E+00  0.52390967807E+02  0.52410208049E+02  0.14200000000E+01 0.  1.
         -4   -1    0    0    0  501 -0.00000000000E+00 -0.00000000000E+00 -0.16223475228E+01  0.21560175057E+01  0.14200000000E+01 0. -1.
       1023    2    1    2    0    0  0.00000000000E+00  0.00000000000E+00  0.50768620284E+02  0.54566225554E+02  0.20000504137E+02 0.  0.
        -11    1    3    3    0    0  0.60022387434E+01  0.79984708158E+01  0.25244240755E+02  0.27152791696E+02  0.51100000000E-03 0. -1.
         11    1    3    3    0    0 -0.60022387434E+01 -0.79984708158E+01  0.25524379529E+02  0.27413433858E+02  0.51100000000E-03 0.  1.
<mgrwt>
<rscale>  0 0.20000504E+02</rscale>
<asrwt>0</asrwt>
<pdfrwt beam="1">  1        4 0.81026801E-02 0.20000504E+02</pdfrwt>
<pdfrwt beam="2">  1       -4 0.29212350E-03 0.20000504E+02</pdfrwt>
<totfact> 0.11331765E+06</totfact>
</mgrwt>
</event>
<event>
 5    1  0.1154861E-006  0.2000192E+02  0.7818608E-02  0.1745290E+00
          4   -1    0    0  501    0  0.00000000000E+00  0.00000000000E+00  0.32052410114E+02  0.32083849428E+02  0.14200000000E+01 0. -1.
         -4   -1    0    0    0  501 -0.00000000000E+00 -0.00000000000E+00 -0.29241669957E+01  0.32507157087E+01  0.14200000000E+01 0.  1.
       1023    2    1    2    0    0  0.00000000000E+00  0.00000000000E+00  0.29128243119E+02  0.35334565137E+02  0.20001923564E+02 0.  0.
        -11    1    3    3    0    0 -0.26785022856E+01 -0.96355501170E+01  0.14507268322E+02  0.17620415290E+02  0.51100000000E-03 0.  1.
         11    1    3    3    0    0  0.26785022856E+01  0.96355501170E+01  0.14620974796E+02  0.17714149847E+02  0.51100000000E-03 0. -1.
<mgrwt>
<rscale>  0 0.20001924E+02</rscale>
<asrwt>0</asrwt>
<pdfrwt beam="1">  1        4 0.49586773E-02 0.20001924E+02</pdfrwt>
<pdfrwt beam="2">  1       -4 0.47740941E-03 0.20001924E+02</pdfrwt>
<totfact> 0.12183162E+06</totfact>
</mgrwt>
</event>
<event>
 5    1  0.1154861E-006  0.2000580E+02  0.7818608E-02  0.1745213E+00
         -4   -1    0    0    0  501 -0.00000000000E+00  0.00000000000E+00  0.15034131420E+01  0.20680065463E+01  0.14200000000E+01 0. -1.
          4   -1    0    0  501    0  0.00000000000E+00 -0.00000000000E+00 -0.55457502531E+02  0.55475679238E+02  0.14200000000E+01 0.  1.
       1023    2    1    2    0    0  0.00000000000E+00  0.00000000000E+00 -0.53954089389E+02  0.57543685784E+02  0.20005799457E+02 0.  0.
        -11    1    3    3    0    0 -0.89509990848E+01 -0.44625144508E+01 -0.26535331722E+02  0.28357684139E+02  0.51100000000E-03 0.  1.
         11    1    3    3    0    0  0.89509990848E+01  0.44625144508E+01 -0.27418757666E+02  0.29186001646E+02  0.51100000000E-03 0. -1.
<mgrwt>
<rscale>  0 0.20005799E+02</rscale>
<asrwt>0</asrwt>
<pdfrwt beam="2">  1        4 0.85767506E-02 0.20005799E+02</pdfrwt>
<pdfrwt beam="1">  1       -4 0.27612284E-03 0.20005799E+02</pdfrwt>
<totfact> 0.11207537E+06</totfact>
</mgrwt>
</event>
<event>
 5    1  0.1154861E-006  0.2000046E+02  0.7818608E-02  0.1745319E+00
         -4   -1    0    0    0  501 -0.00000000000E+00  0.00000000000E+00  0.24851932477E+02  0.24892467693E+02  0.14200000000E+01 0.  1.
          4   -1    0    0  501    0  0.00000000000E+00 -0.00000000000E+00 -0.38534431511E+01  0.41067534768E+01  0.14200000000E+01 0. -1.
       1023    2    1    2    0    0  0.00000000000E+00  0.00000000000E+00  0.20998489326E+02  0.28999221170E+02  0.20000456857E+02 0.  0.
        -11    1    3    3    0    0 -0.28797538524E+00  0.99960444755E+01  0.10459979151E+02  0.14471178220E+02  0.51100000000E-03 0.  1.
         11    1    3    3    0    0  0.28797538524E+00 -0.99960444755E+01  0.10538510176E+02  0.14528042950E+02  0.51100000000E-03 0. -1.
<mgrwt>
<rscale>  0 0.20000457E+02</rscale>
<asrwt>0</asrwt>
<pdfrwt beam="2">  1        4 0.61544090E-03 0.20000457E+02</pdfrwt>
<pdfrwt beam="1">  1       -4 0.38459778E-02 0.20000457E+02</pdfrwt>
<totfact> 0.12507764E+06</totfact>
</mgrwt>
</event>
<event>
 5    1  0.1154861E-006  0.2000041E+02  0.7818608E-02  0.1745320E+00
          4   -1    0    0  501    0  0.00000000000E+00  0.00000000000E+00  0.64165775312E+02  0.64181485815E+02  0.14200000000E+01 0. -1.
         -4   -1    0    0    0  501 -0.00000000000E+00 -0.00000000000E+00 -0.12157976189E+01  0.18693752566E+01  0.14200000000E+01 0.  1.
       1023    2    1    2    0    0  0.00000000000E+00  0.00000000000E+00  0.62949977693E+02  0.66050861071E+02  0.20000413913E+02 0.  0.
        -11    1    3    3    0    0 -0.32165169118E+01 -0.94686438037E+01  0.31654127617E+02  0.33196159296E+02  0.51100000000E-03 0.  1.
         11    1    3    3    0    0  0.32165169118E+01  0.94686438037E+01  0.31295850076E+02  0.32854701776E+02  0.51100000000E-03 0. -1.
<mgrwt>
<rscale>  0 0.20000414E+02</rscale>
<asrwt>0</asrwt>
<pdfrwt beam="1">  1        4 0.99231447E-02 0.20000414E+02</pdfrwt>
<pdfrwt beam="2">  1       -4 0.23852941E-03 0.20000414E+02</pdfrwt>
<totfact> 0.10892027E+06</totfact>
</mgrwt>
</event>
<event>
 5    1  0.1154861E-006  0.2000224E+02  0.7818608E-02  0.1745284E+00
         -4   -1    0    0    0  501 -0.00000000000E+00  0.00000000000E+00  0.58258622024E+02  0.58275925047E+02  0.14200000000E+01 0.  1.
          4   -1    0    0  501    0  0.00000000000E+00 -0.00000000000E+00 -0.14026085963E+01  0.19959235643E+01  0.14200000000E+01 0. -1.
       1023    2    1    2    0    0  0.00000000000E+00  0.00000000000E+00  0.56856013428E+02  0.60271848612E+02  0.20002236679E+02 0.  0.
        -11    1    3    3    0    0 -0.35762349032E+01  0.93396948651E+01  0.28262647159E+02  0.29979936306E+02  0.51100000000E-03 0. -1.
         11    1    3    3    0    0  0.35762349032E+01 -0.93396948651E+01  0.28593366269E+02  0.30291912305E+02  0.51100000000E-03 0.  1.
<mgrwt>
<rscale>  0 0.20002237E+02</rscale>
<asrwt>0</asrwt>
<pdfrwt beam="2">  1        4 0.26275656E-03 0.20002237E+02</pdfrwt>
<pdfrwt beam="1">  1       -4 0.90098352E-02 0.20002237E+02</pdfrwt>
<totfact> 0.11105931E+06</totfact>
</mgrwt>
</event>
<event>
 5    1  0.1154861E-006  0.2000059E+02  0.7818608E-02  0.1745316E+00
          4   -1    0    0  501    0  0.00000000000E+00  0.00000000000E+00  0.16697011237E+02  0.16757284513E+02  0.14200000000E+01 0. -1.
         -4   -1    0    0    0  501 -0.00000000000E+00 -0.00000000000E+00 -0.58330517795E+01  0.60034067881E+01  0.14200000000E+01 0.  1.
       1023    2    1    2    0    0  0.00000000000E+00  0.00000000000E+00  0.10863959457E+02  0.22760691301E+02  0.20000586326E+02 0.  0.
        -11    1    3    3    0    0 -0.59979197428E+01 -0.80016790673E+01  0.55035377578E+01  0.11414501183E+02  0.51100000000E-03 0. -1.
         11    1    3    3    0    0  0.59979197428E+01  0.80016790673E+01  0.53604216993E+01  0.11346190118E+02  0.51100000000E-03 0.  1.
<mgrwt>
<rscale>  0 0.20000586E+02</rscale>
<asrwt>0</asrwt>
<pdfrwt beam="1">  1        4 0.25865116E-02 0.20000586E+02</pdfrwt>
<pdfrwt beam="2">  1       -4 0.91513323E-03 0.20000586E+02</pdfrwt>
<totfact> 0.12851529E+06</totfact>
</mgrwt>
</event>
<event>
 4    1  0.1154861E-006  0.2007836E+02  0.7818608E-02  0.1743774E+00
         -4   -1    0    0    0  501 -0.00000000000E+00  0.00000000000E+00  0.17314718755E+01  0.22392844517E+01  0.14200000000E+01 0.  1.
          4   -1    0    0  501    0  0.00000000000E+00 -0.00000000000E+00 -0.50244582871E+02  0.50264644711E+02  0.14200000000E+01 0. -1.
        -11    1    1    2    0    0 -0.71767983769E+01  0.70177416573E+01 -0.24709678859E+02  0.26670646084E+02  0.51100000000E-03 0. -1.
         11    1    1    2    0    0  0.71767983769E+01 -0.70177416573E+01 -0.23803432136E+02  0.25833283079E+02  0.51100000000E-03 0.  1.
<mgrwt>
<rscale>  0 0.20078362E+02</rscale>
<asrwt>0</asrwt>
<pdfrwt beam="2">  1        4 0.77705406E-02 0.20078362E+02</pdfrwt>
<pdfrwt beam="1">  1       -4 0.30698605E-03 0.20078362E+02</pdfrwt>
<totfact> 0.11326488E+06</totfact>
</mgrwt>
</event>
<event>
 5    1  0.1154861E-006  0.2000498E+02  0.7818608E-02  0.1745229E+00
          4   -1    0    0  501    0  0.00000000000E+00  0.00000000000E+00  0.10532495344E+02  0.10627787077E+02  0.14200000000E+01 0.  1.
         -4   -1    0    0    0  501 -0.00000000000E+00 -0.00000000000E+00 -0.93069871279E+01  0.94146911473E+01  0.14200000000E+01 0. -1.
       1023    2    1    2    0    0  0.00000000000E+00  0.00000000000E+00  0.12255082157E+01  0.20042478225E+02  0.20004975956E+02 0.  0.
        -11    1    3    3    0    0  0.99820057731E+01 -0.61805202209E+00  0.44710227872E+00  0.10011110241E+02  0.51100000000E-03 0.  1.
         11    1    3    3    0    0 -0.99820057731E+01  0.61805202209E+00  0.77840593703E+00  0.10031367983E+02  0.51100000000E-03 0. -1.
<mgrwt>
<rscale>  0 0.20004976E+02</rscale>
<asrwt>0</asrwt>
<pdfrwt beam="1">  1        4 0.16359990E-02 0.20004976E+02</pdfrwt>
<pdfrwt beam="2">  1       -4 0.14474592E-02 0.20004976E+02</pdfrwt>
<totfact> 0.13004916E+06</totfact>
</mgrwt>
</event>
<event>
 5    1  0.1154861E-006  0.2000362E+02  0.7818608E-02  0.1745256E+00
         -4   -1    0    0    0  501 -0.00000000000E+00  0.00000000000E+00  0.31317888305E+01  0.34386772571E+01  0.14200000000E+01 0.  1.
          4   -1    0    0  501    0  0.00000000000E+00 -0.00000000000E+00 -0.30125853148E+02  0.30159300853E+02  0.14200000000E+01 0. -1.
       1023    2    1    2    0    0  0.00000000000E+00  0.00000000000E+00 -0.26994064318E+02  0.33597978110E+02  0.20003615290E+02 0.  0.
        -11    1    3    3    0    0  0.31110427061E+01  0.95048381107E+01 -0.13287105082E+02  0.16630324589E+02  0.51100000000E-03 0. -1.
         11    1    3    3    0    0 -0.31110427061E+01 -0.95048381107E+01 -0.13706959236E+02  0.16967653520E+02  0.51100000000E-03 0.  1.
<mgrwt>
<rscale>  0 0.20003615E+02</rscale>
<asrwt>0</asrwt>
<pdfrwt beam="2">  1        4 0.46609261E-02 0.20003615E+02</pdfrwt>
<pdfrwt beam="1">  1       -4 0.50799339E-03 0.20003615E+02</pdfrwt>
<totfact> 0.12267138E+06</totfact>
</mgrwt>
</event>
<event>
 4    1  0.1154861E-006  0.2001348E+02  0.7818608E-02  0.1745060E+00
          4   -1    0    0  501    0  0.00000000000E+00  0.00000000000E+00  0.17851723951E+02  0.17908111236E+02  0.14200000000E+01 0. -1.
         -4   -1    0    0    0  501 -0.00000000000E+00 -0.00000000000E+00 -0.54529512514E+01  0.56348094334E+01  0.14200000000E+01 0.  1.
        -11    1    1    2    0    0  0.99422680083E+01 -0.11340780471E+01  0.62085638668E+01  0.11776293632E+02  0.51100000000E-03 0.  1.
         11    1    1    2    0    0 -0.99422680083E+01  0.11340780471E+01  0.61902088331E+01  0.11766627037E+02  0.51100000000E-03 0. -1.
<mgrwt>
<rscale>  0 0.20013484E+02</rscale>
<asrwt>0</asrwt>
<pdfrwt beam="1">  1        4 0.27647456E-02 0.20013484E+02</pdfrwt>
<pdfrwt beam="2">  1       -4 0.85724218E-03 0.20013484E+02</pdfrwt>
<totfact> 0.12790047E+06</totfact>
</mgrwt>
</event>
<event>
 5    1  0.1206034E-006  0.2000216E+02  0.7818608E-02  0.1745285E+00
         -4   -1    0    0    0  501 -0.00000000000E+00  0.00000000000E+00  0.71505272736E+01  0.72901605120E+01  0.14200000000E+01 0. -1.
          4   -1    0    0  501    0  0.00000000000E+00 -0.00000000000E+00 -0.13675992996E+02  0.13749515789E+02  0.14200000000E+01 0.  1.
       1023    2    1    2    0    0  0.00000000000E+00  0.00000000000E+00 -0.65254657225E+01  0.21039676301E+02  0.20002156782E+02 0.  0.
        -11    1    3    3    0    0 -0.41758157576E+01  0.90875694956E+01 -0.32780536394E+01  0.10524589897E+02  0.51100000000E-03 0. -1.
         11    1    3    3    0    0  0.41758157576E+01 -0.90875694956E+01 -0.32474120831E+01  0.10515086404E+02  0.51100000000E-03 0.  1.
<mgrwt>
<rscale>  0 0.20002157E+02</rscale>
<asrwt>0</asrwt>
<pdfrwt beam="2">  1        4 0.21203955E-02 0.20002157E+02</pdfrwt>
<pdfrwt beam="1">  1       -4 0.11164777E-02 0.20002157E+02</pdfrwt>
<totfact> 0.12949559E+06</totfact>
</mgrwt>
</event>
<event>
 5    1  0.1154861E-006  0.2000274E+02  0.7818608E-02  0.1745274E+00
         -4   -1    0    0    0  501 -0.00000000000E+00  0.00000000000E+00  0.23071234047E+02  0.23114892179E+02  0.14200000000E+01 0.  1.
          4   -1    0    0  501    0  0.00000000000E+00 -0.00000000000E+00 -0.41701556804E+01  0.44052920901E+01  0.14200000000E+01 0. -1.
       1023    2    1    2    0    0  0.00000000000E+00  0.00000000000E+00  0.18901078367E+02  0.27520184270E+02  0.20002744282E+02 0.  0.
        -11    1    3    3    0    0  0.98531588663E+01  0.17136723945E+01  0.93436872839E+01  0.13686705412E+02  0.51100000000E-03 0.  1.
         11    1    3    3    0    0 -0.98531588663E+01 -0.17136723945E+01  0.95573910830E+01  0.13833478857E+02  0.51100000000E-03 0. -1.
<mgrwt>
<rscale>  0 0.20002744E+02</rscale>
<asrwt>0</asrwt>
<pdfrwt beam="2">  1        4 0.66300813E-03 0.20002744E+02</pdfrwt>
<pdfrwt beam="1">  1       -4 0.35708665E-02 0.20002744E+02</pdfrwt>
<totfact> 0.12583834E+06</totfact>
</mgrwt>
</event>
<event>
 5    1  0.1154861E-006  0.2001036E+02  0.7818608E-02  0.1745122E+00
         -4   -1    0    0    0  501 -0.00000000000E+00  0.00000000000E+00  0.80127011046E+01  0.81375536245E+01  0.14200000000E+01 0. -1.
          4   -1    0    0  501    0  0.00000000000E+00 -0.00000000000E+00 -0.12230293825E+02  0.12312452520E+02  0.14200000000E+01 0.  1.
       1023    2    1    2    0    0  0.00000000000E+00  0.00000000000E+00 -0.42175927209E+01  0.20450006145E+02  0.20010363889E+02 0.  0.
        -11    1    3    3    0    0 -0.39508031403E+01 -0.91885711746E+01 -0.23693082909E+01  0.10278730842E+02  0.51100000000E-03 0.  1.
         11    1    3    3    0    0  0.39508031403E+01  0.91885711746E+01 -0.18482844300E+01  0.10171275303E+02  0.51100000000E-03 0. -1.
<mgrwt>
<rscale>  0 0.20010364E+02</rscale>
<asrwt>0</asrwt>
<pdfrwt beam="2">  1        4 0.18975076E-02 0.20010364E+02</pdfrwt>
<pdfrwt beam="1">  1       -4 0.12486472E-02 0.20010364E+02</pdfrwt>
<totfact> 0.12973557E+06</totfact>
</mgrwt>
</event>
<event>
 5    1  0.1154861E-006  0.2000438E+02  0.7818608E-02  0.1745241E+00
          4   -1    0    0  501    0  0.00000000000E+00  0.00000000000E+00  0.62059476125E+01  0.63663322069E+01  0.14200000000E+01 0.  1.
         -4   -1    0    0    0  501 -0.00000000000E+00 -0.00000000000E+00 -0.15722194651E+02  0.15786190315E+02  0.14200000000E+01 0. -1.
       1023    2    1    2    0    0  0.00000000000E+00  0.00000000000E+00 -0.95162470389E+01  0.22152522522E+02  0.20004381929E+02 0.  0.
        -11    1    3    3    0    0 -0.11161798433E+01 -0.99391090050E+01 -0.48798278227E+01  0.11128542811E+02  0.51100000000E-03 0.  1.
         11    1    3    3    0    0  0.11161798433E+01  0.99391090050E+01 -0.46364192162E+01  0.11023979711E+02  0.51100000000E-03 0. -1.
<mgrwt>
<rscale>  0 0.20004382E+02</rscale>
<asrwt>0</asrwt>
<pdfrwt beam="1">  1        4 0.97202119E-03 0.20004382E+02</pdfrwt>
<pdfrwt beam="2">  1       -4 0.24360592E-02 0.20004382E+02</pdfrwt>
<totfact> 0.12881624E+06</totfact>
</mgrwt>
</event>
<event>
 5    1  0.1154861E-006  0.2000247E+02  0.7818608E-02  0.1745279E+00
          4   -1    0    0  501    0  0.00000000000E+00  0.00000000000E+00  0.23491351256E+02  0.23534230046E+02  0.14200000000E+01 0. -1.
         -4   -1    0    0    0  501 -0.00000000000E+00 -0.00000000000E+00 -0.40913580848E+01  0.43307748704E+01  0.14200000000E+01 0.  1.
       1023    2    1    2    0    0  0.00000000000E+00  0.00000000000E+00  0.19399993172E+02  0.27865004916E+02  0.20002468946E+02 0.  0.
        -11    1    3    3    0    0 -0.67185568436E+01  0.74084024494E+01  0.97494028943E+01  0.13966899798E+02  0.51100000000E-03 0. -1.
         11    1    3    3    0    0  0.67185568436E+01 -0.74084024494E+01  0.96505902773E+01  0.13898105118E+02  0.51100000000E-03 0.  1.
<mgrwt>
<rscale>  0 0.20002469E+02</rscale>
<asrwt>0</asrwt>
<pdfrwt beam="1">  1        4 0.36357691E-02 0.20002469E+02</pdfrwt>
<pdfrwt beam="2">  1       -4 0.65115474E-03 0.20002469E+02</pdfrwt>
<totfact> 0.12565637E+06</totfact>
</mgrwt>
</event>
<event>
 5    1  0.1154861E-006  0.2000026E+02  0.7818608E-02  0.1745323E+00
          4   -1    0    0  501    0  0.00000000000E+00  0.00000000000E+00  0.10243479266E+02  0.10341434498E+02  0.14200000000E+01 0.  1.
         -4   -1    0    0    0  501 -0.00000000000E+00 -0.00000000000E+00 -0.95654866798E+01  0.96703120644E+01  0.14200000000E+01 0. -1.
       1023    2    1    2    0    0  0.00000000000E+00  0.00000000000E+00  0.67799258596E+00  0.20011746562E+02  0.20000258161E+02 0.  0.
        -11    1    3    3    0    0  0.19105226906E+01 -0.98158993370E+01  0.36359946991E+00  0.10006706830E+02  0.51100000000E-03 0.  1.
         11    1    3    3    0    0 -0.19105226906E+01  0.98158993370E+01  0.31439311605E+00  0.10005039732E+02  0.51100000000E-03 0. -1.
<mgrwt>
<rscale>  0 0.20000258E+02</rscale>
<asrwt>0</asrwt>
<pdfrwt beam="1">  1        4 0.15915184E-02 0.20000258E+02</pdfrwt>
<pdfrwt beam="2">  1       -4 0.14872119E-02 0.20000258E+02</pdfrwt>
<totfact> 0.13013005E+06</totfact>
</mgrwt>
</event>
<event>
 5    1  0.1154861E-006  0.2000282E+02  0.7818608E-02  0.1745272E+00
         -4   -1    0    0    0  501 -0.00000000000E+00  0.00000000000E+00  0.10560460359E+02  0.10655502006E+02  0.14200000000E+01 0. -1.
          4   -1    0    0  501    0  0.00000000000E+00 -0.00000000000E+00 -0.92802380043E+01  0.93882489005E+01  0.14200000000E+01 0.  1.
       1023    2    1    2    0    0  0.00000000000E+00  0.00000000000E+00  0.12802223550E+01  0.20043750906E+02  0.20002824329E+02 0.  0.
        -11    1    3    3    0    0 -0.67404954121E+01 -0.73882909326E+01  0.72468597053E+00  0.10027277363E+02  0.51100000000E-03 0.  1.
         11    1    3    3    0    0  0.67404954121E+01  0.73882909326E+01  0.55553638445E+00  0.10016473543E+02  0.51100000000E-03 0. -1.
<mgrwt>
<rscale>  0 0.20002824E+02</rscale>
<asrwt>0</asrwt>
<pdfrwt beam="2">  1        4 0.14433483E-02 0.20002824E+02</pdfrwt>
<pdfrwt beam="1">  1       -4 0.16403056E-02 0.20002824E+02</pdfrwt>
<totfact> 0.13007697E+06</totfact>
</mgrwt>
</event>
<event>
 5    1  0.1154861E-006  0.2000815E+02  0.7818608E-02  0.1745166E+00
          4   -1    0    0  501    0  0.00000000000E+00  0.00000000000E+00  0.94595067088E+02  0.94605724549E+02  0.14200000000E+01 0.  1.
         -4   -1    0    0    0  501 -0.00000000000E+00 -0.00000000000E+00 -0.56590085419E+00  0.15286084446E+01  0.14200000000E+01 0. -1.
       1023    2    1    2    0    0  0.00000000000E+00  0.00000000000E+00  0.94029166234E+02  0.96134332993E+02  0.20008145277E+02 0.  0.
        -11    1    3    3    0    0  0.49359880160E+01  0.87015795632E+01  0.47024784272E+02  0.48077144265E+02  0.51100000000E-03 0. -1.
         11    1    3    3    0    0 -0.49359880160E+01 -0.87015795632E+01  0.47004381961E+02  0.48057188728E+02  0.51100000000E-03 0.  1.
<mgrwt>
<rscale>  0 0.20008145E+02</rscale>
<asrwt>0</asrwt>
<pdfrwt beam="1">  1        4 0.14627963E-01 0.20008145E+02</pdfrwt>
<pdfrwt beam="2">  1       -4 0.16193589E-03 0.20008145E+02</pdfrwt>
<totfact> 0.99046813E+05</totfact>
</mgrwt>
</event>
<event>
 5    1  0.1154861E-006  0.2000102E+02  0.7818608E-02  0.1745308E+00
         -4   -1    0    0    0  501 -0.00000000000E+00  0.00000000000E+00  0.18999208626E+01  0.23719399832E+01  0.14200000000E+01 0.  1.
          4   -1    0    0  501    0  0.00000000000E+00 -0.00000000000E+00 -0.46338684961E+02  0.46360437055E+02  0.14200000000E+01 0. -1.
       1023    2    1    2    0    0  0.00000000000E+00  0.00000000000E+00 -0.44438764099E+02  0.48732377038E+02  0.20001020404E+02 0.  0.
        -11    1    3    3    0    0 -0.86339001757E+01  0.50461088462E+01 -0.22347322473E+02  0.24482856629E+02  0.51100000000E-03 0.  1.
         11    1    3    3    0    0  0.86339001757E+01 -0.50461088462E+01 -0.22091441626E+02  0.24249520410E+02  0.51100000000E-03 0. -1.
<mgrwt>
<rscale>  0 0.20001020E+02</rscale>
<asrwt>0</asrwt>
<pdfrwt beam="2">  1        4 0.71670101E-02 0.20001020E+02</pdfrwt>
<pdfrwt beam="1">  1       -4 0.33027795E-03 0.20001020E+02</pdfrwt>
<totfact> 0.11572668E+06</totfact>
</mgrwt>
</event>
<event>
 5    1  0.1184789E-006  0.2000175E+02  0.7818608E-02  0.1745293E+00
         -4   -1    0    0    0  501 -0.00000000000E+00  0.00000000000E+00  0.52257002212E+01  0.54151955460E+01  0.14200000000E+01 0.  1.
          4   -1    0    0  501    0  0.00000000000E+00 -0.00000000000E+00 -0.18581626266E+02  0.18635805180E+02  0.14200000000E+01 0. -1.
       1023    2    1    2    0    0  0.00000000000E+00  0.00000000000E+00 -0.13355926045E+02  0.24051000726E+02  0.20001746808E+02 0.  0.
        -11    1    3    3    0    0 -0.32552559849E+00 -0.99954902788E+01 -0.67271863078E+01  0.12052834883E+02  0.51100000000E-03 0. -1.
         11    1    3    3    0    0  0.32552559849E+00  0.99954902788E+01 -0.66287397371E+01  0.11998165843E+02  0.51100000000E-03 0.  1.
<mgrwt>
<rscale>  0 0.20001747E+02</rscale>
<asrwt>0</asrwt>
<pdfrwt beam="2">  1        4 0.28774559E-02 0.20001747E+02</pdfrwt>
<pdfrwt beam="1">  1       -4 0.82269806E-03 0.20001747E+02</pdfrwt>
<totfact> 0.12776610E+06</totfact>
</mgrwt>
</event>
<event>
 5    1  0.1154861E-006  0.2000062E+02  0.7818608E-02  0.1745316E+00
          4   -1    0    0  501    0  0.00000000000E+00  0.00000000000E+00  0.24570354408E+02  0.24611353391E+02  0.14200000000E+01 0. -1.
         -4   -1    0    0    0  501 -0.00000000000E+00 -0.00000000000E+00 -0.39004820200E+01  0.41509227876E+01  0.14200000000E+01 0.  1.
       1023    2    1    2    0    0  0.00000000000E+00  0.00000000000E+00  0.20669872388E+02  0.28762276179E+02  0.20000622651E+02 0.  0.
        -11    1    3    3    0    0 -0.80931947399E+01  0.58738506937E+01  0.10429272629E+02  0.14448932518E+02  0.51100000000E-03 0.  1.
         11    1    3    3    0    0  0.80931947399E+01 -0.58738506937E+01  0.10240599759E+02  0.14313343661E+02  0.51100000000E-03 0. -1.
<mgrwt>
<rscale>  0 0.20000623E+02</rscale>
<asrwt>0</asrwt>
<pdfrwt beam="1">  1        4 0.38024731E-02 0.20000623E+02</pdfrwt>
<pdfrwt beam="2">  1       -4 0.62249259E-03 0.20000623E+02</pdfrwt>
<totfact> 0.12520107E+06</totfact>
</mgrwt>
</event>
<event>
 5    1  0.1160495E-006  0.2000068E+02  0.7818608E-02  0.1745315E+00
         -4   -1    0    0    0  501 -0.00000000000E+00  0.00000000000E+00  0.41979395041E+01  0.44316019768E+01  0.14200000000E+01 0. -1.
          4   -1    0    0  501    0  0.00000000000E+00 -0.00000000000E+00 -0.22921542469E+02  0.22965485171E+02  0.14200000000E+01 0.  1.
       1023    2    1    2    0    0  0.00000000000E+00  0.00000000000E+00 -0.18723602965E+02  0.27397087148E+02  0.20000676894E+02 0.  0.
        -11    1    3    3    0    0  0.66463938089E+01 -0.74719834104E+01 -0.94179810531E+01  0.13736937582E+02  0.51100000000E-03 0. -1.
         11    1    3    3    0    0 -0.66463938089E+01  0.74719834104E+01 -0.93056219114E+01  0.13660149566E+02  0.51100000000E-03 0.  1.
<mgrwt>
<rscale>  0 0.20000677E+02</rscale>
<asrwt>0</asrwt>
<pdfrwt beam="2">  1        4 0.35477453E-02 0.20000677E+02</pdfrwt>
<pdfrwt beam="1">  1       -4 0.66719111E-03 0.20000677E+02</pdfrwt>
<totfact> 0.12593123E+06</totfact>
</mgrwt>
</event>
<event>
 5    1  0.1154861E-006  0.2000057E+02  0.7818608E-02  0.1745317E+00
         -4   -1    0    0    0  501 -0.00000000000E+00  0.00000000000E+00  0.30030373373E+02  0.30063927304E+02  0.14200000000E+01 0.  1.
          4   -1    0    0  501    0  0.00000000000E+00 -0.00000000000E+00 -0.31416476730E+01  0.34476586405E+01  0.14200000000E+01 0. -1.
       1023    2    1    2    0    0  0.00000000000E+00  0.00000000000E+00  0.26888725700E+02  0.33511585944E+02  0.20000570560E+02 0.  0.
        -11    1    3    3    0    0 -0.13099349396E+00  0.99993079368E+01  0.13526222646E+02  0.16821474901E+02  0.51100000000E-03 0.  1.
         11    1    3    3    0    0  0.13099349396E+00 -0.99993079368E+01  0.13362503054E+02  0.16690111043E+02  0.51100000000E-03 0. -1.
<mgrwt>
<rscale>  0 0.20000571E+02</rscale>
<asrwt>0</asrwt>
<pdfrwt beam="2">  1        4 0.50945077E-03 0.20000571E+02</pdfrwt>
<pdfrwt beam="1">  1       -4 0.46461780E-02 0.20000571E+02</pdfrwt>
<totfact> 0.12275257E+06</totfact>
</mgrwt>
</event>
<event>
 5    1  0.1154861E-006  0.2000616E+02  0.7818608E-02  0.1745206E+00
         -4   -1    0    0    0  501 -0.00000000000E+00  0.00000000000E+00  0.17106506974E+02  0.17165342433E+02  0.14200000000E+01 0.  1.
          4   -1    0    0  501    0  0.00000000000E+00 -0.00000000000E+00 -0.56930915578E+01  0.58675115241E+01  0.14200000000E+01 0. -1.
       1023    2    1    2    0    0  0.00000000000E+00  0.00000000000E+00  0.11413415416E+02  0.23032853957E+02  0.20006156801E+02 0.  0.
        -11    1    3    3    0    0  0.19080012028E+01  0.98190586758E+01  0.58043662731E+01  0.11564819495E+02  0.51100000000E-03 0. -1.
         11    1    3    3    0    0 -0.19080012028E+01 -0.98190586758E+01  0.56090491431E+01  0.11468034462E+02  0.51100000000E-03 0.  1.
<mgrwt>
<rscale>  0 0.20006157E+02</rscale>
<asrwt>0</asrwt>
<pdfrwt beam="2">  1        4 0.89380298E-03 0.20006157E+02</pdfrwt>
<pdfrwt beam="1">  1       -4 0.26497130E-02 0.20006157E+02</pdfrwt>
<totfact> 0.12828645E+06</totfact>
</mgrwt>
</event>
<event>
 5    1  0.1154861E-006  0.2000043E+02  0.7818608E-02  0.1745319E+00
         -4   -1    0    0    0  501 -0.00000000000E+00  0.00000000000E+00  0.12109031934E+02  0.12192007807E+02  0.14200000000E+01 0. -1.
          4   -1    0    0  501    0  0.00000000000E+00 -0.00000000000E+00 -0.80853967608E+01  0.82091437300E+01  0.14200000000E+01 0.  1.
       1023    2    1    2    0    0  0.00000000000E+00  0.00000000000E+00  0.40236351730E+01  0.20401151537E+02  0.20000433596E+02 0.  0.
        -11    1    3    3    0    0 -0.52911425776E+01 -0.84856776120E+01  0.20502749251E+01  0.10208160551E+02  0.51100000000E-03 0.  1.
         11    1    3    3    0    0  0.52911425776E+01  0.84856776120E+01  0.19733602479E+01  0.10192990986E+02  0.51100000000E-03 0. -1.
<mgrwt>
<rscale>  0 0.20000434E+02</rscale>
<asrwt>0</asrwt>
<pdfrwt beam="2">  1        4 0.12598090E-02 0.20000434E+02</pdfrwt>
<pdfrwt beam="1">  1       -4 0.18788297E-02 0.20000434E+02</pdfrwt>
<totfact> 0.12989606E+06</totfact>
</mgrwt>
</event>
<event>
 5    1  0.1154861E-006  0.2000039E+02  0.7818608E-02  0.1745320E+00
         -4   -1    0    0    0  501 -0.00000000000E+00  0.00000000000E+00  0.10035737451E+02  0.10135700577E+02  0.14200000000E+01 0. -1.
          4   -1    0    0  501    0  0.00000000000E+00 -0.00000000000E+00 -0.97638215438E+01  0.98665399781E+01  0.14200000000E+01 0.  1.
       1023    2    1    2    0    0  0.00000000000E+00  0.00000000000E+00  0.27191590757E+00  0.20002240555E+02  0.20000392221E+02 0.  0.
        -11    1    3    3    0    0 -0.94607650164E+01  0.32396258386E+01  0.84264548547E-01  0.10000417544E+02  0.51100000000E-03 0. -1.
         11    1    3    3    0    0  0.94607650164E+01 -0.32396258386E+01  0.18765135902E+00  0.10001823012E+02  0.51100000000E-03 0.  1.
<mgrwt>
<rscale>  0 0.20000392E+02</rscale>
<asrwt>0</asrwt>
<pdfrwt beam="2">  1        4 0.15177173E-02 0.20000392E+02</pdfrwt>
<pdfrwt beam="1">  1       -4 0.15595505E-02 0.20000392E+02</pdfrwt>
<totfact> 0.13013391E+06</totfact>
</mgrwt>
</event>
<event>
 5    1  0.1182144E-006  0.2000086E+02  0.7818608E-02  0.1745311E+00
         -4   -1    0    0    0  501 -0.00000000000E+00  0.00000000000E+00  0.18997357948E+02  0.19050354563E+02  0.14200000000E+01 0. -1.
          4   -1    0    0  501    0  0.00000000000E+00 -0.00000000000E+00 -0.51070082100E+01  0.53007483299E+01  0.14200000000E+01 0.  1.
       1023    2    1    2    0    0  0.00000000000E+00  0.00000000000E+00  0.13890349737E+02  0.24351102893E+02  0.20000859889E+02 0.  0.
        -11    1    3    3    0    0 -0.97175920511E+01  0.23601045401E+01  0.70463822207E+01  0.12233282118E+02  0.51100000000E-03 0.  1.
         11    1    3    3    0    0  0.97175920511E+01 -0.23601045401E+01  0.68439675168E+01  0.12117820775E+02  0.51100000000E-03 0. -1.
<mgrwt>
<rscale>  0 0.20000860E+02</rscale>
<asrwt>0</asrwt>
<pdfrwt beam="2">  1        4 0.80467333E-03 0.20000860E+02</pdfrwt>
<pdfrwt beam="1">  1       -4 0.29416502E-02 0.20000860E+02</pdfrwt>
<totfact> 0.12760860E+06</totfact>
</mgrwt>
</event>
<event>
 5    1  0.1154861E-006  0.2000901E+02  0.7818608E-02  0.1745149E+00
          4   -1    0    0  501    0  0.00000000000E+00  0.00000000000E+00  0.22215292275E+02  0.22260629166E+02  0.14200000000E+01 0.  1.
         -4   -1    0    0    0  501 -0.00000000000E+00 -0.00000000000E+00 -0.43422717073E+01  0.45685581511E+01  0.14200000000E+01 0. -1.
       1023    2    1    2    0    0  0.00000000000E+00  0.00000000000E+00  0.17873020568E+02  0.26829187317E+02  0.20009008668E+02 0.  0.
        -11    1    3    3    0    0 -0.99343948434E+01  0.11563879747E+01  0.86062331901E+01  0.13194570248E+02  0.51100000000E-03 0.  1.
         11    1    3    3    0    0  0.99343948434E+01 -0.11563879747E+01  0.92667873780E+01  0.13634617069E+02  0.51100000000E-03 0. -1.
<mgrwt>
<rscale>  0 0.20009009E+02</rscale>
<asrwt>0</asrwt>
<pdfrwt beam="1">  1        4 0.34386315E-02 0.20009009E+02</pdfrwt>
<pdfrwt beam="2">  1       -4 0.68893589E-03 0.20009009E+02</pdfrwt>
<totfact> 0.12613219E+06</totfact>
</mgrwt>
</event>
<event>
 5    1  0.1154861E-006  0.2000060E+02  0.7818608E-02  0.1745316E+00
         -4   -1    0    0    0  501 -0.00000000000E+00  0.00000000000E+00  0.58448851109E+02  0.58466097834E+02  0.14200000000E+01 0. -1.
          4   -1    0    0  501    0  0.00000000000E+00 -0.00000000000E+00 -0.13957829005E+01  0.19911328196E+01  0.14200000000E+01 0.  1.
       1023    2    1    2    0    0  0.00000000000E+00  0.00000000000E+00  0.57053068208E+02  0.60457230654E+02  0.20000603649E+02 0.  0.
        -11    1    3    3    0    0  0.98316168798E+01  0.18285170125E+01  0.28395770611E+02  0.30105214727E+02  0.51100000000E-03 0.  1.
         11    1    3    3    0    0 -0.98316168798E+01 -0.18285170125E+01  0.28657297598E+02  0.30352015926E+02  0.51100000000E-03 0. -1.
<mgrwt>
<rscale>  0 0.20000604E+02</rscale>
<asrwt>0</asrwt>
<pdfrwt beam="2">  1        4 0.26185864E-03 0.20000604E+02</pdfrwt>
<pdfrwt beam="1">  1       -4 0.90392540E-02 0.20000604E+02</pdfrwt>
<totfact> 0.11100660E+06</totfact>
</mgrwt>
</event>
<event>
 5    1  0.1154861E-006  0.2000536E+02  0.7818608E-02  0.1745221E+00
         -4   -1    0    0    0  501 -0.00000000000E+00  0.00000000000E+00  0.29104867056E+02  0.29139486720E+02  0.14200000000E+01 0.  1.
          4   -1    0    0  501    0  0.00000000000E+00 -0.00000000000E+00 -0.32527192378E+01  0.35491664430E+01  0.14200000000E+01 0. -1.
       1023    2    1    2    0    0  0.00000000000E+00  0.00000000000E+00  0.25852147818E+02  0.32688653163E+02  0.20005361752E+02 0.  0.
        -11    1    3    3    0    0 -0.77963348304E+01  0.62664535891E+01  0.12846912378E+02  0.16281720894E+02  0.51100000000E-03 0.  1.
         11    1    3    3    0    0  0.77963348304E+01 -0.62664535891E+01  0.13005235440E+02  0.16406932269E+02  0.51100000000E-03 0. -1.
<mgrwt>
<rscale>  0 0.20005362E+02</rscale>
<asrwt>0</asrwt>
<pdfrwt beam="2">  1        4 0.52588502E-03 0.20005362E+02</pdfrwt>
<pdfrwt beam="1">  1       -4 0.45031386E-02 0.20005362E+02</pdfrwt>
<totfact> 0.12310740E+06</totfact>
</mgrwt>
</event>
<event>
 5    1  0.1196179E-006  0.2000097E+02  0.7818608E-02  0.1745309E+00
          4   -1    0    0  501    0  0.00000000000E+00  0.00000000000E+00  0.25480890205E+02  0.25520426439E+02  0.14200000000E+01 0.  1.
         -4   -1    0    0    0  501 -0.00000000000E+00 -0.00000000000E+00 -0.37523606963E+01  0.40120581745E+01  0.14200000000E+01 0. -1.
       1023    2    1    2    0    0  0.00000000000E+00  0.00000000000E+00  0.21728529508E+02  0.29532484614E+02  0.20000966298E+02 0.  0.
        -11    1    3    3    0    0  0.34218524274E+00 -0.99945236288E+01  0.10797091430E+02  0.14716819524E+02  0.51100000000E-03 0.  1.
         11    1    3    3    0    0 -0.34218524274E+00  0.99945236288E+01  0.10931438079E+02  0.14815665089E+02  0.51100000000E-03 0. -1.
<mgrwt>
<rscale>  0 0.20000966E+02</rscale>
<asrwt>0</asrwt>
<pdfrwt beam="1">  1        4 0.39431550E-02 0.20000966E+02</pdfrwt>
<pdfrwt beam="2">  1       -4 0.60030423E-03 0.20000966E+02</pdfrwt>
<totfact> 0.12479006E+06</totfact>
</mgrwt>
</event>
<event>
 4    1  0.1154861E-006  0.2007148E+02  0.7818608E-02  0.1743910E+00
          4   -1    0    0  501    0  0.00000000000E+00  0.00000000000E+00  0.40409371837E+02  0.40434313798E+02  0.14200000000E+01 0. -1.
         -4   -1    0    0    0  501 -0.00000000000E+00 -0.00000000000E+00 -0.22622507309E+01  0.26709882758E+01  0.14200000000E+01 0.  1.
        -11    1    1    2    0    0 -0.28739550943E+01 -0.96087605222E+01  0.19842378579E+02  0.22233035884E+02  0.51100000000E-03 0.  1.
         11    1    1    2    0    0  0.28739550943E+01  0.96087605222E+01  0.18304742527E+02  0.20872266190E+02  0.51100000000E-03 0. -1.
<mgrwt>
<rscale>  0 0.20071478E+02</rscale>
<asrwt>0</asrwt>
<pdfrwt beam="1">  1        4 0.62501863E-02 0.20071478E+02</pdfrwt>
<pdfrwt beam="2">  1       -4 0.38139854E-03 0.20071478E+02</pdfrwt>
<totfact> 0.11735419E+06</totfact>
</mgrwt>
</event>
<event>
 4    1  0.1154861E-006  0.2002095E+02  0.7818608E-02  0.1744912E+00
         -4   -1    0    0    0  501 -0.00000000000E+00  0.00000000000E+00  0.45819888793E+02  0.45841887058E+02  0.14200000000E+01 0.  1.
          4   -1    0    0  501    0  0.00000000000E+00 -0.00000000000E+00 -0.19315547408E+01  0.23973534818E+01  0.14200000000E+01 0. -1.
        -11    1    1    2    0    0 -0.86686133396E+01  0.49960276304E+01  0.21165408054E+02  0.23411100950E+02  0.51100000000E-03 0.  1.
         11    1    1    2    0    0  0.86686133396E+01 -0.49960276304E+01  0.22722925998E+02  0.24828139590E+02  0.51100000000E-03 0. -1.
<mgrwt>
<rscale>  0 0.20020951E+02</rscale>
<asrwt>0</asrwt>
<pdfrwt beam="2">  1        4 0.33468513E-03 0.20020951E+02</pdfrwt>
<pdfrwt beam="1">  1       -4 0.70867363E-02 0.20020951E+02</pdfrwt>
<totfact> 0.11570428E+06</totfact>
</mgrwt>
</event>
<event>
 5    1  0.1154861E-006  0.2000051E+02  0.7818608E-02  0.1745318E+00
          4   -1    0    0  501    0  0.00000000000E+00  0.00000000000E+00  0.24153068907E+01  0.28018043072E+01  0.14200000000E+01 0. -1.
         -4   -1    0    0    0  501 -0.00000000000E+00 -0.00000000000E+00 -0.37936571482E+02  0.37963138119E+02  0.14200000000E+01 0.  1.
       1023    2    1    2    0    0  0.00000000000E+00  0.00000000000E+00 -0.35521264591E+02  0.40764942426E+02  0.20000507314E+02 0.  0.
        -11    1    3    3    0    0 -0.91163061086E+01  0.41103798583E+01 -0.17652525375E+02  0.20288270306E+02  0.51100000000E-03 0. -1.
         11    1    3    3    0    0  0.91163061086E+01 -0.41103798583E+01 -0.17868739217E+02  0.20476672120E+02  0.51100000000E-03 0.  1.
<mgrwt>
<rscale>  0 0.20000507E+02</rscale>
<asrwt>0</asrwt>
<pdfrwt beam="1">  1        4 0.40335986E-03 0.20000507E+02</pdfrwt>
<pdfrwt beam="2">  1       -4 0.58681694E-02 0.20000507E+02</pdfrwt>
<totfact> 0.11926542E+06</totfact>
</mgrwt>
</event>
<event>
 5    1  0.1154861E-006  0.2000096E+02  0.7818608E-02  0.1745309E+00
         -4   -1    0    0    0  501 -0.00000000000E+00  0.00000000000E+00  0.36209142741E+00  0.14654385698E+01  0.14200000000E+01 0.  1.
          4   -1    0    0  501    0  0.00000000000E+00 -0.00000000000E+00 -0.10833704942E+03  0.10834635516E+03  0.14200000000E+01 0. -1.
       1023    2    1    2    0    0  0.00000000000E+00  0.00000000000E+00 -0.10797495799E+03  0.10981179373E+03  0.20000962208E+02 0.  0.
        -11    1    3    3    0    0 -0.98158996762E+01  0.19123112974E+01 -0.53832082585E+02  0.54753099791E+02  0.51100000000E-03 0. -1.
         11    1    3    3    0    0  0.98158996762E+01 -0.19123112974E+01 -0.54142875409E+02  0.55058693944E+02  0.51100000000E-03 0.  1.
<mgrwt>
<rscale>  0 0.20000962E+02</rscale>
<asrwt>0</asrwt>
<pdfrwt beam="2">  1        4 0.16752817E-01 0.20000962E+02</pdfrwt>
<pdfrwt beam="1">  1       -4 0.14129514E-03 0.20000962E+02</pdfrwt>
<totfact> 0.95294248E+05</totfact>
</mgrwt>
</event>
<event>
 5    1  0.1154861E-006  0.2000306E+02  0.7818608E-02  0.1745267E+00
          4   -1    0    0  501    0  0.00000000000E+00  0.00000000000E+00  0.61507369853E+01  0.63125244920E+01  0.14200000000E+01 0.  1.
         -4   -1    0    0    0  501 -0.00000000000E+00 -0.00000000000E+00 -0.15858154721E+02  0.15921603912E+02  0.14200000000E+01 0. -1.
       1023    2    1    2    0    0  0.00000000000E+00  0.00000000000E+00 -0.97074177354E+01  0.22234128404E+02  0.20003062436E+02 0.  0.
        -11    1    3    3    0    0  0.99376316463E+01 -0.11287537645E+01 -0.48585083769E+01  0.11119159667E+02  0.51100000000E-03 0.  1.
         11    1    3    3    0    0 -0.99376316463E+01  0.11287537645E+01 -0.48489093585E+01  0.11114968737E+02  0.51100000000E-03 0. -1.
<mgrwt>
<rscale>  0 0.20003062E+02</rscale>
<asrwt>0</asrwt>
<pdfrwt beam="1">  1        4 0.96359313E-03 0.20003062E+02</pdfrwt>
<pdfrwt beam="2">  1       -4 0.24570420E-02 0.20003062E+02</pdfrwt>
<totfact> 0.12878635E+06</totfact>
</mgrwt>
</event>
<event>
 4    1  0.1154861E-006  0.2002622E+02  0.7818608E-02  0.1744807E+00
         -4   -1    0    0    0  501 -0.00000000000E+00  0.00000000000E+00  0.76860128918E+02  0.76873245133E+02  0.14200000000E+01 0. -1.
          4   -1    0    0  501    0  0.00000000000E+00 -0.00000000000E+00 -0.90081069780E+00  0.16816241891E+01  0.14200000000E+01 0.  1.
        -11    1    1    2    0    0 -0.99281881754E+01 -0.12108924358E+01  0.36109988306E+02  0.37469540118E+02  0.51100000000E-03 0.  1.
         11    1    1    2    0    0  0.99281881754E+01  0.12108924358E+01  0.39849329914E+02  0.41085329204E+02  0.51100000000E-03 0. -1.
<mgrwt>
<rscale>  0 0.20026220E+02</rscale>
<asrwt>0</asrwt>
<pdfrwt beam="2">  1        4 0.19965773E-03 0.20026220E+02</pdfrwt>
<pdfrwt beam="1">  1       -4 0.11885710E-01 0.20026220E+02</pdfrwt>
<totfact> 0.10431240E+06</totfact>
</mgrwt>
</event>
<event>
 5    1  0.1154861E-006  0.2000029E+02  0.7818608E-02  0.1745322E+00
          4   -1    0    0  501    0  0.00000000000E+00  0.00000000000E+00  0.27979542100E+01  0.31376659735E+01  0.14200000000E+01 0.  1.
         -4   -1    0    0    0  501 -0.00000000000E+00 -0.00000000000E+00 -0.33340168269E+02  0.33370394367E+02  0.14200000000E+01 0. -1.
       1023    2    1    2    0    0  0.00000000000E+00  0.00000000000E+00 -0.30542214059E+02  0.36508060341E+02  0.20000290753E+02 0.  0.
        -11    1    3    3    0    0  0.22005446734E+01  0.97550235458E+01 -0.15280423643E+02  0.18261824340E+02  0.51100000000E-03 0.  1.
         11    1    3    3    0    0 -0.22005446734E+01 -0.97550235458E+01 -0.15261790416E+02  0.18246236001E+02  0.51100000000E-03 0. -1.
<mgrwt>
<rscale>  0 0.20000291E+02</rscale>
<asrwt>0</asrwt>
<pdfrwt beam="1">  1        4 0.45891128E-03 0.20000291E+02</pdfrwt>
<pdfrwt beam="2">  1       -4 0.51577131E-02 0.20000291E+02</pdfrwt>
<totfact> 0.12127986E+06</totfact>
</mgrwt>
</event>
<event>
 5    1  0.1154861E-006  0.2000686E+02  0.7818608E-02  0.1745192E+00
          4   -1    0    0  501    0  0.00000000000E+00  0.00000000000E+00  0.54461403131E+02  0.54479912178E+02  0.14200000000E+01 0.  1.
         -4   -1    0    0    0  501 -0.00000000000E+00 -0.00000000000E+00 -0.15413559526E+01  0.20957524120E+01  0.14200000000E+01 0. -1.
       1023    2    1    2    0    0  0.00000000000E+00  0.00000000000E+00  0.52920047178E+02  0.56575664590E+02  0.20006859586E+02 0.  0.
        -11    1    3    3    0    0 -0.62956957124E+01 -0.77738233528E+01  0.26397214152E+02  0.28229081269E+02  0.51100000000E-03 0. -1.
         11    1    3    3    0    0  0.62956957124E+01  0.77738233528E+01  0.26522833026E+02  0.28346583321E+02  0.51100000000E-03 0.  1.
<mgrwt>
<rscale>  0 0.20006860E+02</rscale>
<asrwt>0</asrwt>
<pdfrwt beam="1">  1        4 0.84227463E-02 0.20006860E+02</pdfrwt>
<pdfrwt beam="2">  1       -4 0.28120136E-03 0.20006860E+02</pdfrwt>
<totfact> 0.11244409E+06</totfact>
</mgrwt>
</event>
<event>
 5    1  0.1156567E-006  0.2000040E+02  0.7818608E-02  0.1745320E+00
         -4   -1    0    0    0  501 -0.00000000000E+00  0.00000000000E+00  0.10078395800E+02  0.10177939963E+02  0.14200000000E+01 0.  1.
          4   -1    0    0  501    0  0.00000000000E+00 -0.00000000000E+00 -0.97224773688E+01  0.98256280301E+01  0.14200000000E+01 0. -1.
       1023    2    1    2    0    0  0.00000000000E+00  0.00000000000E+00  0.35591843104E+00  0.20003567994E+02  0.20000401360E+02 0.  0.
        -11    1    3    3    0    0 -0.29292270206E+00 -0.99957696866E+01  0.23086406321E+00  0.10002725319E+02  0.51100000000E-03 0. -1.
         11    1    3    3    0    0  0.29292270206E+00  0.99957696866E+01  0.12505436784E+00  0.10000842674E+02  0.51100000000E-03 0.  1.
<mgrwt>
<rscale>  0 0.20000401E+02</rscale>
<asrwt>0</asrwt>
<pdfrwt beam="2">  1        4 0.15113577E-02 0.20000401E+02</pdfrwt>
<pdfrwt beam="1">  1       -4 0.15661143E-02 0.20000401E+02</pdfrwt>
<totfact> 0.13013300E+06</totfact>
</mgrwt>
</event>
<event>
 5    1  0.1154861E-006  0.2000919E+02  0.7818608E-02  0.1745145E+00
         -4   -1    0    0    0  501 -0.00000000000E+00  0.00000000000E+00  0.25010907965E+00  0.14418580207E+01  0.14200000000E+01 0.  1.
          4   -1    0    0  501    0  0.00000000000E+00 -0.00000000000E+00 -0.11711521809E+03  0.11712382639E+03  0.14200000000E+01 0. -1.
       1023    2    1    2    0    0  0.00000000000E+00  0.00000000000E+00 -0.11686510901E+03  0.11856568441E+03  0.20009193282E+02 0.  0.
        -11    1    3    3    0    0 -0.87668519473E+01  0.48186996737E+01 -0.57721633485E+02  0.58582117852E+02  0.51100000000E-03 0.  1.
         11    1    3    3    0    0  0.87668519473E+01 -0.48186996737E+01 -0.59143475526E+02  0.59983566559E+02  0.51100000000E-03 0. -1.
<mgrwt>
<rscale>  0 0.20009193E+02</rscale>
<asrwt>0</asrwt>
<pdfrwt beam="2">  1        4 0.18110048E-01 0.20009193E+02</pdfrwt>
<pdfrwt beam="1">  1       -4 0.13081359E-03 0.20009193E+02</pdfrwt>
<totfact> 0.92935828E+05</totfact>
</mgrwt>
</event>
<event>
 5    1  0.1154861E-006  0.2000045E+02  0.7818608E-02  0.1745319E+00
          4   -1    0    0  501    0  0.00000000000E+00  0.00000000000E+00  0.86651042566E+01  0.87806851542E+01  0.14200000000E+01 0.  1.
         -4   -1    0    0    0  501 -0.00000000000E+00 -0.00000000000E+00 -0.11304309341E+02  0.11393147487E+02  0.14200000000E+01 0. -1.
       1023    2    1    2    0    0  0.00000000000E+00  0.00000000000E+00 -0.26392050840E+01  0.20173832641E+02  0.20000452994E+02 0.  0.
        -11    1    3    3    0    0 -0.77441089512E+01  0.63271251998E+01 -0.13480067341E+01  0.10090632248E+02  0.51100000000E-03 0. -1.
         11    1    3    3    0    0  0.77441089512E+01 -0.63271251998E+01 -0.12911983499E+01  0.10083200394E+02  0.51100000000E-03 0.  1.
<mgrwt>
<rscale>  0 0.20000453E+02</rscale>
<asrwt>0</asrwt>
<pdfrwt beam="1">  1        4 0.13488175E-02 0.20000453E+02</pdfrwt>
<pdfrwt beam="2">  1       -4 0.17548491E-02 0.20000453E+02</pdfrwt>
<totfact> 0.13003103E+06</totfact>
</mgrwt>
</event>
<event>
 5    1  0.1154861E-006  0.2000618E+02  0.7818608E-02  0.1745205E+00
          4   -1    0    0  501    0  0.00000000000E+00  0.00000000000E+00  0.19731597236E+02  0.19782626961E+02  0.14200000000E+01 0. -1.
         -4   -1    0    0    0  501 -0.00000000000E+00 -0.00000000000E+00 -0.49128886583E+01  0.51139881666E+01  0.14200000000E+01 0.  1.
       1023    2    1    2    0    0  0.00000000000E+00  0.00000000000E+00  0.14818708578E+02  0.24896615128E+02  0.20006182067E+02 0.  0.
        -11    1    3    3    0    0  0.54330565358E+01  0.83988145712E+01  0.74844393070E+01  0.12492998900E+02  0.51100000000E-03 0. -1.
         11    1    3    3    0    0 -0.54330565358E+01 -0.83988145712E+01  0.73342692709E+01  0.12403616228E+02  0.51100000000E-03 0.  1.
<mgrwt>
<rscale>  0 0.20006182E+02</rscale>
<asrwt>0</asrwt>
<pdfrwt beam="1">  1        4 0.30550250E-02 0.20006182E+02</pdfrwt>
<pdfrwt beam="2">  1       -4 0.77522356E-03 0.20006182E+02</pdfrwt>
<totfact> 0.12723360E+06</totfact>
</mgrwt>
</event>
<event>
 5    1  0.1154861E-006  0.2000032E+02  0.7818608E-02  0.1745322E+00
         -4   -1    0    0    0  501 -0.00000000000E+00  0.00000000000E+00  0.68245627181E+02  0.68260398690E+02  0.14200000000E+01 0. -1.
          4   -1    0    0  501    0  0.00000000000E+00 -0.00000000000E+00 -0.11028092492E+01  0.17979399990E+01  0.14200000000E+01 0.  1.
       1023    2    1    2    0    0  0.00000000000E+00  0.00000000000E+00  0.67142817931E+02  0.70058338689E+02  0.20000320499E+02 0.  0.
        -11    1    3    3    0    0 -0.65162942125E+01  0.75854358897E+01  0.33738552754E+02  0.35189357341E+02  0.51100000000E-03 0.  1.
         11    1    3    3    0    0  0.65162942125E+01 -0.75854358897E+01  0.33404265177E+02  0.34868981347E+02  0.51100000000E-03 0. -1.
<mgrwt>
<rscale>  0 0.20000320E+02</rscale>
<asrwt>0</asrwt>
<pdfrwt beam="2">  1        4 0.22427084E-03 0.20000320E+02</pdfrwt>
<pdfrwt beam="1">  1       -4 0.10553934E-01 0.20000320E+02</pdfrwt>
<totfact> 0.10748395E+06</totfact>
</mgrwt>
</event>
<event>
 5    1  0.1154861E-006  0.2000032E+02  0.7818608E-02  0.1745322E+00
         -4   -1    0    0    0  501 -0.00000000000E+00  0.00000000000E+00  0.89360449746E+02  0.89371731430E+02  0.14200000000E+01 0. -1.
          4   -1    0    0  501    0  0.00000000000E+00 -0.00000000000E+00 -0.65263815968E+00  0.15627976732E+01  0.14200000000E+01 0.  1.
       1023    2    1    2    0    0  0.00000000000E+00  0.00000000000E+00  0.88707811586E+02  0.90934529103E+02  0.20000318668E+02 0.  0.
        -11    1    3    3    0    0  0.57885784647E+01 -0.81544672044E+01  0.44287954293E+02  0.45402928009E+02  0.51100000000E-03 0. -1.
         11    1    3    3    0    0 -0.57885784647E+01  0.81544672044E+01  0.44419857293E+02  0.45531601095E+02  0.51100000000E-03 0.  1.
<mgrwt>
<rscale>  0 0.20000319E+02</rscale>
<asrwt>0</asrwt>
<pdfrwt beam="2">  1        4 0.17128594E-03 0.20000319E+02</pdfrwt>
<pdfrwt beam="1">  1       -4 0.13818644E-01 0.20000319E+02</pdfrwt>
<totfact> 0.10067012E+06</totfact>
</mgrwt>
</event>
<event>
 5    1  0.1154861E-006  0.2000023E+02  0.7818608E-02  0.1745323E+00
          4   -1    0    0  501    0  0.00000000000E+00  0.00000000000E+00  0.10800554885E+02  0.10893502000E+02  0.14200000000E+01 0.  1.
         -4   -1    0    0    0  501 -0.00000000000E+00 -0.00000000000E+00 -0.90709096885E+01  0.91813834784E+01  0.14200000000E+01 0. -1.
       1023    2    1    2    0    0  0.00000000000E+00  0.00000000000E+00  0.17296451963E+01  0.20074885478E+02  0.20000233860E+02 0.  0.
        -11    1    3    3    0    0 -0.99568140116E+01  0.92865868359E+00  0.90724310265E+00  0.10041097675E+02  0.51100000000E-03 0. -1.
         11    1    3    3    0    0  0.99568140116E+01 -0.92865868359E+00  0.82240209362E+00  0.10033787803E+02  0.51100000000E-03 0.  1.
<mgrwt>
<rscale>  0 0.20000234E+02</rscale>
<asrwt>0</asrwt>
<pdfrwt beam="1">  1        4 0.16772716E-02 0.20000234E+02</pdfrwt>
<pdfrwt beam="2">  1       -4 0.14111723E-02 0.20000234E+02</pdfrwt>
<totfact> 0.13009291E+06</totfact>
</mgrwt>
</event>
<event>
 5    1  0.1172757E-006  0.2000356E+02  0.7818608E-02  0.1745257E+00
          4   -1    0    0  501    0  0.00000000000E+00  0.00000000000E+00  0.55366546308E+01  0.57158502868E+01  0.14200000000E+01 0.  1.
         -4   -1    0    0    0  501 -0.00000000000E+00 -0.00000000000E+00 -0.17571860732E+02  0.17629143190E+02  0.14200000000E+01 0. -1.
       1023    2    1    2    0    0  0.00000000000E+00  0.00000000000E+00 -0.12035206102E+02  0.23344993476E+02  0.20003563045E+02 0.  0.
        -11    1    3    3    0    0  0.18329145968E+01  0.98309588508E+01 -0.58212570938E+01  0.11571273148E+02  0.51100000000E-03 0.  1.
         11    1    3    3    0    0 -0.18329145968E+01 -0.98309588508E+01 -0.62139490079E+01  0.11773720329E+02  0.51100000000E-03 0. -1.
<mgrwt>
<rscale>  0 0.20003563E+02</rscale>
<asrwt>0</asrwt>
<pdfrwt beam="1">  1        4 0.86998365E-03 0.20003563E+02</pdfrwt>
<pdfrwt beam="2">  1       -4 0.27215538E-02 0.20003563E+02</pdfrwt>
<totfact> 0.12814229E+06</totfact>
</mgrwt>
</event>
<event>
 5    1  0.1154861E-006  0.2000132E+02  0.7818608E-02  0.1745302E+00
         -4   -1    0    0    0  501 -0.00000000000E+00  0.00000000000E+00  0.25542150970E+01  0.29223988027E+01  0.14200000000E+01 0. -1.
          4   -1    0    0  501    0  0.00000000000E+00 -0.00000000000E+00 -0.36140659545E+02  0.36168545345E+02  0.14200000000E+01 0.  1.
       1023    2    1    2    0    0  0.00000000000E+00  0.00000000000E+00 -0.33586444448E+02  0.39090944147E+02  0.20001316548E+02 0.  0.
        -11    1    3    3    0    0  0.33689222915E+01  0.94161287725E+01 -0.16779796516E+02  0.19533936875E+02  0.51100000000E-03 0. -1.
         11    1    3    3    0    0 -0.33689222915E+01 -0.94161287725E+01 -0.16806647932E+02  0.19557007272E+02  0.51100000000E-03 0.  1.
<mgrwt>
<rscale>  0 0.20001317E+02</rscale>
<asrwt>0</asrwt>
<pdfrwt beam="2">  1        4 0.55905680E-02 0.20001317E+02</pdfrwt>
<pdfrwt beam="1">  1       -4 0.42342308E-03 0.20001317E+02</pdfrwt>
<totfact> 0.12003533E+06</totfact>
</mgrwt>
</event>
<event>
 5    1  0.1180033E-006  0.2000123E+02  0.7818608E-02  0.1745304E+00
          4   -1    0    0  501    0  0.00000000000E+00  0.00000000000E+00  0.11383105895E+02  0.11471333829E+02  0.14200000000E+01 0. -1.
         -4   -1    0    0    0  501 -0.00000000000E+00 -0.00000000000E+00 -0.86054696506E+01  0.87218408554E+01  0.14200000000E+01 0.  1.
       1023    2    1    2    0    0  0.00000000000E+00  0.00000000000E+00  0.27776362445E+01  0.20193174684E+02  0.20001225981E+02 0.  0.
        -11    1    3    3    0    0  0.79992110982E+01 -0.60019243726E+01  0.13461567927E+01  0.10090719139E+02  0.51100000000E-03 0. -1.
         11    1    3    3    0    0 -0.79992110982E+01  0.60019243726E+01  0.14314794518E+01  0.10102455546E+02  0.51100000000E-03 0.  1.
<mgrwt>
<rscale>  0 0.20001226E+02</rscale>
<asrwt>0</asrwt>
<pdfrwt beam="1">  1        4 0.17669854E-02 0.20001226E+02</pdfrwt>
<pdfrwt beam="2">  1       -4 0.13396568E-02 0.20001226E+02</pdfrwt>
<totfact> 0.13000923E+06</totfact>
</mgrwt>
</event>
<event>
 5    1  0.1154861E-006  0.2000538E+02  0.7818608E-02  0.1745221E+00
          4   -1    0    0  501    0  0.00000000000E+00  0.00000000000E+00  0.24520535558E+01  0.28335431249E+01  0.14200000000E+01 0. -1.
         -4   -1    0    0    0  501 -0.00000000000E+00 -0.00000000000E+00 -0.37463127640E+02  0.37490029775E+02  0.14200000000E+01 0.  1.
       1023    2    1    2    0    0  0.00000000000E+00  0.00000000000E+00 -0.35011074084E+02  0.40323572900E+02  0.20005379849E+02 0.  0.
        -11    1    3    3    0    0 -0.20869882168E+01  0.97825067154E+01 -0.17446840274E+02  0.20110822789E+02  0.51100000000E-03 0.  1.
         11    1    3    3    0    0  0.20869882168E+01 -0.97825067154E+01 -0.17564233810E+02  0.20212750111E+02  0.51100000000E-03 0. -1.
<mgrwt>
<rscale>  0 0.20005380E+02</rscale>
<asrwt>0</asrwt>
<pdfrwt beam="1">  1        4 0.40865378E-03 0.20005380E+02</pdfrwt>
<pdfrwt beam="2">  1       -4 0.57949725E-02 0.20005380E+02</pdfrwt>
<totfact> 0.11941074E+06</totfact>
</mgrwt>
</event>
<event>
 5    1  0.1154861E-006  0.2000011E+02  0.7818608E-02  0.1745326E+00
         -4   -1    0    0    0  501 -0.00000000000E+00  0.00000000000E+00  0.44107982254E+02  0.44130833875E+02  0.14200000000E+01 0. -1.
          4   -1    0    0  501    0  0.00000000000E+00 -0.00000000000E+00 -0.20190164742E+01  0.24683653544E+01  0.14200000000E+01 0.  1.
       1023    2    1    2    0    0  0.00000000000E+00  0.00000000000E+00  0.42088965780E+02  0.46599199230E+02  0.20000108210E+02 0.  0.
        -11    1    3    3    0    0  0.10416719371E+01 -0.99456513686E+01  0.21054973980E+02  0.23309075295E+02  0.51100000000E-03 0.  1.
         11    1    3    3    0    0 -0.10416719371E+01  0.99456513686E+01  0.21033991800E+02  0.23290123934E+02  0.51100000000E-03 0. -1.
<mgrwt>
<rscale>  0 0.20000108E+02</rscale>
<asrwt>0</asrwt>
<pdfrwt beam="2">  1        4 0.34694102E-03 0.20000108E+02</pdfrwt>
<pdfrwt beam="1">  1       -4 0.68221668E-02 0.20000108E+02</pdfrwt>
<totfact> 0.11665542E+06</totfact>
</mgrwt>
</event>
<event>
 5    1  0.1154861E-006  0.2000170E+02  0.7818608E-02  0.1745294E+00
         -4   -1    0    0    0  501 -0.00000000000E+00  0.00000000000E+00  0.11929788582E+03  0.11930633663E+03  0.14200000000E+01 0. -1.
          4   -1    0    0  501    0  0.00000000000E+00 -0.00000000000E+00 -0.22244041503E+00  0.14373168538E+01  0.14200000000E+01 0.  1.
       1023    2    1    2    0    0  0.00000000000E+00  0.00000000000E+00  0.11907544540E+03  0.12074365348E+03  0.20001703909E+02 0.  0.
        -11    1    3    3    0    0  0.98021027970E+01 -0.19807331281E+01  0.60213090473E+02  0.61037863556E+02  0.51100000000E-03 0.  1.
         11    1    3    3    0    0 -0.98021027970E+01  0.19807331281E+01  0.58862354928E+02  0.59705789927E+02  0.51100000000E-03 0. -1.
<mgrwt>
<rscale>  0 0.20001704E+02</rscale>
<asrwt>0</asrwt>
<pdfrwt beam="2">  1        4 0.12832368E-03 0.20001704E+02</pdfrwt>
<pdfrwt beam="1">  1       -4 0.18447625E-01 0.20001704E+02</pdfrwt>
<totfact> 0.92455584E+05</totfact>
</mgrwt>
</event>
<event>
 5    1  0.1154861E-006  0.2000643E+02  0.7818608E-02  0.1745200E+00
         -4   -1    0    0    0  501 -0.00000000000E+00  0.00000000000E+00  0.14410379432E+01  0.20231140239E+01  0.14200000000E+01 0. -1.
          4   -1    0    0  501    0  0.00000000000E+00 -0.00000000000E+00 -0.57178939473E+02  0.57196569121E+02  0.14200000000E+01 0.  1.
       1023    2    1    2    0    0  0.00000000000E+00  0.00000000000E+00 -0.55737901530E+02  0.59219683145E+02  0.20006429089E+02 0.  0.
        -11    1    3    3    0    0 -0.91426399603E+01  0.40588792112E+01 -0.27999160707E+02  0.29732395909E+02  0.51100000000E-03 0.  1.
         11    1    3    3    0    0  0.91426399603E+01 -0.40588792112E+01 -0.27738740822E+02  0.29487287236E+02  0.51100000000E-03 0. -1.
<mgrwt>
<rscale>  0 0.20006429E+02</rscale>
<asrwt>0</asrwt>
<pdfrwt beam="2">  1        4 0.88428897E-02 0.20006429E+02</pdfrwt>
<pdfrwt beam="1">  1       -4 0.26782940E-03 0.20006429E+02</pdfrwt>
<totfact> 0.11141689E+06</totfact>
</mgrwt>
</event>
<event>
 5    1  0.1155323E-006  0.2000108E+02  0.7818608E-02  0.1745307E+00
         -4   -1    0    0    0  501 -0.00000000000E+00  0.00000000000E+00  0.23392213483E+01  0.27364861623E+01  0.14200000000E+01 0.  1.
          4   -1    0    0  501    0  0.00000000000E+00 -0.00000000000E+00 -0.38996449690E+02  0.39022294761E+02  0.14200000000E+01 0. -1.
       1023    2    1    2    0    0  0.00000000000E+00  0.00000000000E+00 -0.36657228341E+02  0.41758780923E+02  0.20001084833E+02 0.  0.
        -11    1    3    3    0    0  0.64457934368E+01  0.76459637137E+01 -0.18239197070E+02  0.20800897196E+02  0.51100000000E-03 0. -1.
         11    1    3    3    0    0 -0.64457934368E+01 -0.76459637137E+01 -0.18418031271E+02  0.20957883727E+02  0.51100000000E-03 0.  1.
<mgrwt>
<rscale>  0 0.20001085E+02</rscale>
<asrwt>0</asrwt>
<pdfrwt beam="2">  1        4 0.60320003E-02 0.20001085E+02</pdfrwt>
<pdfrwt beam="1">  1       -4 0.39242715E-03 0.20001085E+02</pdfrwt>
<totfact> 0.11880222E+06</totfact>
</mgrwt>
</event>
<event>
 5    1  0.1154861E-006  0.2000041E+02  0.7818608E-02  0.1745320E+00
          4   -1    0    0  501    0  0.00000000000E+00  0.00000000000E+00  0.89765322028E+00  0.16799349106E+01  0.14200000000E+01 0.  1.
         -4   -1    0    0    0  501 -0.00000000000E+00 -0.00000000000E+00 -0.76804254563E+02  0.76817380319E+02  0.14200000000E+01 0. -1.
       1023    2    1    2    0    0  0.00000000000E+00  0.00000000000E+00 -0.75906601343E+02  0.78497315229E+02  0.20000409265E+02 0.  0.
        -11    1    3    3    0    0 -0.24677640178E+01 -0.96908025937E+01 -0.38152588216E+02  0.39441367903E+02  0.51100000000E-03 0.  1.
         11    1    3    3    0    0  0.24677640178E+01  0.96908025937E+01 -0.37754013127E+02  0.39055947327E+02  0.51100000000E-03 0. -1.
<mgrwt>
<rscale>  0 0.20000409E+02</rscale>
<asrwt>0</asrwt>
<pdfrwt beam="1">  1        4 0.19928574E-03 0.20000409E+02</pdfrwt>
<pdfrwt beam="2">  1       -4 0.11877221E-01 0.20000409E+02</pdfrwt>
<totfact> 0.10460126E+06</totfact>
</mgrwt>
</event>
<event>
 5    1  0.1154861E-006  0.2000041E+02  0.7818608E-02  0.1745320E+00
         -4   -1    0    0    0  501 -0.00000000000E+00  0.00000000000E+00  0.70180155366E+01  0.71602333811E+01  0.14200000000E+01 0.  1.
          4   -1    0    0  501    0  0.00000000000E+00 -0.00000000000E+00 -0.13928015554E+02  0.14000214901E+02  0.14200000000E+01 0.  1.
       1023    2    1    2    0    0  0.00000000000E+00  0.00000000000E+00 -0.69100000178E+01  0.21160448282E+02  0.20000411777E+02 0.  0.
        -11    1    3    3    0    0 -0.77181572266E+01  0.63587720330E+01 -0.34406169602E+01  0.10575527319E+02  0.51100000000E-03 0. -1.
         11    1    3    3    0    0  0.77181572266E+01 -0.63587720330E+01 -0.34693830576E+01  0.10584920964E+02  0.51100000000E-03 0.  1.
<mgrwt>
<rscale>  0 0.20000412E+02</rscale>
<asrwt>0</asrwt>
<pdfrwt beam="2">  1        4 0.21592653E-02 0.20000412E+02</pdfrwt>
<pdfrwt beam="1">  1       -4 0.10961883E-02 0.20000412E+02</pdfrwt>
<totfact> 0.12944749E+06</totfact>
</mgrwt>
</event>
<event>
 5    1  0.1154861E-006  0.2000079E+02  0.7818608E-02  0.1745312E+00
          4   -1    0    0  501    0  0.00000000000E+00  0.00000000000E+00  0.64299647389E+02  0.64315325190E+02  0.14200000000E+01 0.  1.
         -4   -1    0    0    0  501 -0.00000000000E+00 -0.00000000000E+00 -0.12119753998E+01  0.18668916331E+01  0.14200000000E+01 0. -1.
       1023    2    1    2    0    0  0.00000000000E+00  0.00000000000E+00  0.63087671989E+02  0.66182216823E+02  0.20000786651E+02 0.  0.
        -11    1    3    3    0    0 -0.91870311124E+01 -0.39504311822E+01  0.31476085118E+02  0.33026525428E+02  0.51100000000E-03 0. -1.
         11    1    3    3    0    0  0.91870311124E+01  0.39504311822E+01  0.31611586870E+02  0.33155691395E+02  0.51100000000E-03 0.  1.
<mgrwt>
<rscale>  0 0.20000787E+02</rscale>
<asrwt>0</asrwt>
<pdfrwt beam="1">  1        4 0.99438354E-02 0.20000787E+02</pdfrwt>
<pdfrwt beam="2">  1       -4 0.23804196E-03 0.20000787E+02</pdfrwt>
<totfact> 0.10886834E+06</totfact>
</mgrwt>
</event>
<event>
 5    1  0.1154861E-006  0.2000036E+02  0.7818608E-02  0.1745321E+00
          4   -1    0    0  501    0  0.00000000000E+00  0.00000000000E+00  0.30574870523E+00  0.14525433800E+01  0.14200000000E+01 0. -1.
         -4   -1    0    0    0  501 -0.00000000000E+00 -0.00000000000E+00 -0.11259670400E+03  0.11260565772E+03  0.14200000000E+01 0.  1.
       1023    2    1    2    0    0  0.00000000000E+00  0.00000000000E+00 -0.11229095529E+03  0.11405820110E+03  0.20000364953E+02 0.  0.
        -11    1    3    3    0    0 -0.31532405898E+01 -0.94900118157E+01 -0.56259366072E+02  0.57141224362E+02  0.51100000000E-03 0.  1.
         11    1    3    3    0    0  0.31532405898E+01  0.94900118157E+01 -0.56031589219E+02  0.56916976739E+02  0.51100000000E-03 0. -1.
<mgrwt>
<rscale>  0 0.20000365E+02</rscale>
<asrwt>0</asrwt>
<pdfrwt beam="1">  1        4 0.13594207E-03 0.20000365E+02</pdfrwt>
<pdfrwt beam="2">  1       -4 0.17411462E-01 0.20000365E+02</pdfrwt>
<totfact> 0.94177607E+05</totfact>
</mgrwt>
</event>
<event>
 5    1  0.1154861E-006  0.2000091E+02  0.7818608E-02  0.1745310E+00
          4   -1    0    0  501    0  0.00000000000E+00  0.00000000000E+00  0.11056603135E+03  0.11057514951E+03  0.14200000000E+01 0.  1.
         -4   -1    0    0    0  501 -0.00000000000E+00 -0.00000000000E+00 -0.33231386069E+00  0.14583663813E+01  0.14200000000E+01 0. -1.
       1023    2    1    2    0    0  0.00000000000E+00  0.00000000000E+00  0.11023371749E+03  0.11203351589E+03  0.20000905249E+02 0.  0.
        -11    1    3    3    0    0  0.94650426746E+01 -0.32270866282E+01  0.54618002013E+02  0.55525915257E+02  0.51100000000E-03 0. -1.
         11    1    3    3    0    0 -0.94650426746E+01  0.32270866282E+01  0.55615715478E+02  0.56507600633E+02  0.51100000000E-03 0.  1.
<mgrwt>
<rscale>  0 0.20000905E+02</rscale>
<asrwt>0</asrwt>
<pdfrwt beam="1">  1        4 0.17097479E-01 0.20000905E+02</pdfrwt>
<pdfrwt beam="2">  1       -4 0.13844604E-03 0.20000905E+02</pdfrwt>
<totfact> 0.94703971E+05</totfact>
</mgrwt>
</event>
<event>
 5    1  0.1154861E-006  0.2000128E+02  0.7818608E-02  0.1745303E+00
          4   -1    0    0  501    0  0.00000000000E+00  0.00000000000E+00  0.71010128401E+00  0.15876535622E+01  0.14200000000E+01 0.  1.
         -4   -1    0    0    0  501 -0.00000000000E+00 -0.00000000000E+00 -0.86166951945E+02  0.86178651692E+02  0.14200000000E+01 0. -1.
       1023    2    1    2    0    0  0.00000000000E+00  0.00000000000E+00 -0.85456850661E+02  0.87766305254E+02  0.20001275287E+02 0.  0.
        -11    1    3    3    0    0 -0.47869500138E+01 -0.87804587777E+01 -0.42892975903E+02  0.44043373268E+02  0.51100000000E-03 0.  1.
         11    1    3    3    0    0  0.47869500138E+01  0.87804587777E+01 -0.42563874758E+02  0.43722931986E+02  0.51100000000E-03 0. -1.
<mgrwt>
<rscale>  0 0.20001275E+02</rscale>
<asrwt>0</asrwt>
<pdfrwt beam="1">  1        4 0.17765042E-03 0.20001275E+02</pdfrwt>
<pdfrwt beam="2">  1       -4 0.13324853E-01 0.20001275E+02</pdfrwt>
<totfact> 0.10162981E+06</totfact>
</mgrwt>
</event>
<event>
 5    1  0.1200844E-006  0.2000097E+02  0.7818608E-02  0.1745309E+00
         -4   -1    0    0    0  501 -0.00000000000E+00  0.00000000000E+00  0.11132403772E+02  0.11222602806E+02  0.14200000000E+01 0.  1.
          4   -1    0    0  501    0  0.00000000000E+00 -0.00000000000E+00 -0.88000685833E+01  0.89138996556E+01  0.14200000000E+01 0. -1.
       1023    2    1    2    0    0  0.00000000000E+00  0.00000000000E+00  0.23323351886E+01  0.20136502462E+02  0.20000973575E+02 0.  0.
        -11    1    3    3    0    0  0.66827494038E+01 -0.74397981246E+01  0.11661661450E+01  0.10068251063E+02  0.51100000000E-03 0.  1.
         11    1    3    3    0    0 -0.66827494038E+01  0.74397981246E+01  0.11661690437E+01  0.10068251399E+02  0.51100000000E-03 0. -1.
<mgrwt>
<rscale>  0 0.20000974E+02</rscale>
<asrwt>0</asrwt>
<pdfrwt beam="2">  1        4 0.13695513E-02 0.20000974E+02</pdfrwt>
<pdfrwt beam="1">  1       -4 0.17283721E-02 0.20000974E+02</pdfrwt>
<totfact> 0.13004642E+06</totfact>
</mgrwt>
</event>
<event>
 5    1  0.1154861E-006  0.2000605E+02  0.7818608E-02  0.1745208E+00
          4   -1    0    0  501    0  0.00000000000E+00  0.00000000000E+00  0.40162571354E+00  0.14757043111E+01  0.14200000000E+01 0. -1.
         -4   -1    0    0    0  501 -0.00000000000E+00 -0.00000000000E+00 -0.10551720123E+03  0.10552675564E+03  0.14200000000E+01 0.  1.
       1023    2    1    2    0    0  0.00000000000E+00  0.00000000000E+00 -0.10511557551E+03  0.10700245995E+03  0.20006054557E+02 0.  0.
        -11    1    3    3    0    0 -0.91920930100E+01  0.39417078060E+01 -0.51648225374E+02  0.52607706840E+02  0.51100000000E-03 0. -1.
         11    1    3    3    0    0  0.91920930100E+01 -0.39417078060E+01 -0.53467350140E+02  0.54394753107E+02  0.51100000000E-03 0.  1.
<mgrwt>
<rscale>  0 0.20006055E+02</rscale>
<asrwt>0</asrwt>
<pdfrwt beam="1">  1        4 0.14514504E-03 0.20006055E+02</pdfrwt>
<pdfrwt beam="2">  1       -4 0.16316763E-01 0.20006055E+02</pdfrwt>
<totfact> 0.96004347E+05</totfact>
</mgrwt>
</event>
<event>
 5    1  0.1154861E-006  0.2000046E+02  0.7818608E-02  0.1745319E+00
         -4   -1    0    0    0  501 -0.00000000000E+00  0.00000000000E+00  0.97246993265E+01  0.98278266667E+01  0.14200000000E+01 0. -1.
          4   -1    0    0  501    0  0.00000000000E+00 -0.00000000000E+00 -0.10076157251E+02  0.10175723313E+02  0.14200000000E+01 0.  1.
       1023    2    1    2    0    0  0.00000000000E+00  0.00000000000E+00 -0.35145792433E+00  0.20003549980E+02  0.20000462223E+02 0.  0.
        -11    1    3    3    0    0 -0.21356968044E+01  0.97694156744E+01 -0.21976483784E+00  0.10002548690E+02  0.51100000000E-03 0.  1.
         11    1    3    3    0    0  0.21356968044E+01 -0.97694156744E+01 -0.13169308648E+00  0.10001001289E+02  0.51100000000E-03 0. -1.
<mgrwt>
<rscale>  0 0.20000462E+02</rscale>
<asrwt>0</asrwt>
<pdfrwt beam="2">  1        4 0.15657698E-02 0.20000462E+02</pdfrwt>
<pdfrwt beam="1">  1       -4 0.15116994E-02 0.20000462E+02</pdfrwt>
<totfact> 0.13013220E+06</totfact>
</mgrwt>
</event>
<event>
 5    1  0.1154861E-006  0.2000300E+02  0.7818608E-02  0.1745269E+00
         -4   -1    0    0    0  501 -0.00000000000E+00  0.00000000000E+00  0.54375908389E+01  0.56199460968E+01  0.14200000000E+01 0. -1.
          4   -1    0    0  501    0  0.00000000000E+00 -0.00000000000E+00 -0.17881664383E+02  0.17937957551E+02  0.14200000000E+01 0.  1.
       1023    2    1    2    0    0  0.00000000000E+00  0.00000000000E+00 -0.12444073544E+02  0.23557903648E+02  0.20002996224E+02 0.  0.
        -11    1    3    3    0    0  0.31214251818E+01  0.95007151621E+01 -0.64009588065E+01  0.11873464434E+02  0.51100000000E-03 0.  1.
         11    1    3    3    0    0 -0.31214251818E+01 -0.95007151621E+01 -0.60431147378E+01  0.11684439214E+02  0.51100000000E-03 0. -1.
<mgrwt>
<rscale>  0 0.20002996E+02</rscale>
<asrwt>0</asrwt>
<pdfrwt beam="2">  1        4 0.27693828E-02 0.20002996E+02</pdfrwt>
<pdfrwt beam="1">  1       -4 0.85491002E-03 0.20002996E+02</pdfrwt>
<totfact> 0.12802868E+06</totfact>
</mgrwt>
</event>
<event>
 5    1  0.1154861E-006  0.2000314E+02  0.7818608E-02  0.1745266E+00
         -4   -1    0    0    0  501 -0.00000000000E+00  0.00000000000E+00  0.19189208082E+02  0.19241676300E+02  0.14200000000E+01 0. -1.
          4   -1    0    0  501    0  0.00000000000E+00 -0.00000000000E+00 -0.50553579397E+01  0.52510040848E+01  0.14200000000E+01 0.  1.
       1023    2    1    2    0    0  0.00000000000E+00  0.00000000000E+00  0.14133850143E+02  0.24492680385E+02  0.20003141567E+02 0.  0.
        -11    1    3    3    0    0 -0.85529270922E+01 -0.51838957004E+01  0.69714389956E+01  0.12191238592E+02  0.51100000000E-03 0.  1.
         11    1    3    3    0    0  0.85529270922E+01  0.51838957004E+01  0.71624111470E+01  0.12301441793E+02  0.51100000000E-03 0. -1.
<mgrwt>
<rscale>  0 0.20003142E+02</rscale>
<asrwt>0</asrwt>
<pdfrwt beam="2">  1        4 0.79683308E-03 0.20003142E+02</pdfrwt>
<pdfrwt beam="1">  1       -4 0.29712716E-02 0.20003142E+02</pdfrwt>
<totfact> 0.12749932E+06</totfact>
</mgrwt>
</event>
<event>
 5    1  0.1154861E-006  0.2000231E+02  0.7818608E-02  0.1745282E+00
         -4   -1    0    0    0  501 -0.00000000000E+00  0.00000000000E+00  0.56346047875E+02  0.56363938038E+02  0.14200000000E+01 0. -1.
          4   -1    0    0  501    0  0.00000000000E+00 -0.00000000000E+00 -0.14700214888E+01  0.20438598723E+01  0.14200000000E+01 0.  1.
       1023    2    1    2    0    0  0.00000000000E+00  0.00000000000E+00  0.54876026386E+02  0.58407797910E+02  0.20002314485E+02 0.  0.
        -11    1    3    3    0    0 -0.59517959644E+01  0.80362829379E+01  0.27823496241E+02  0.29566072820E+02  0.51100000000E-03 0.  1.
         11    1    3    3    0    0  0.59517959644E+01 -0.80362829379E+01  0.27052530145E+02  0.28841725090E+02  0.51100000000E-03 0. -1.
<mgrwt>
<rscale>  0 0.20002314E+02</rscale>
<asrwt>0</asrwt>
<pdfrwt beam="2">  1        4 0.27167475E-03 0.20002314E+02</pdfrwt>
<pdfrwt beam="1">  1       -4 0.87141398E-02 0.20002314E+02</pdfrwt>
<totfact> 0.11177748E+06</totfact>
</mgrwt>
</event>
<event>
 5    1  0.1154902E-006  0.2000049E+02  0.7818608E-02  0.1745318E+00
          4   -1    0    0  501    0  0.00000000000E+00  0.00000000000E+00  0.79640004421E+01  0.80896046283E+01  0.14200000000E+01 0. -1.
         -4   -1    0    0    0  501 -0.00000000000E+00 -0.00000000000E+00 -0.12292077782E+02  0.12373826255E+02  0.14200000000E+01 0.  1.
       1023    2    1    2    0    0  0.00000000000E+00  0.00000000000E+00 -0.43280773397E+01  0.20463430884E+02  0.20000493746E+02 0.  0.
        -11    1    3    3    0    0 -0.27501882573E+01  0.96146343500E+01 -0.21492783335E+01  0.10228593586E+02  0.51100000000E-03 0.  1.
         11    1    3    3    0    0  0.27501882573E+01 -0.96146343500E+01 -0.21787990062E+01  0.10234837297E+02  0.51100000000E-03 0. -1.
<mgrwt>
<rscale>  0 0.20000494E+02</rscale>
<asrwt>0</asrwt>
<pdfrwt beam="1">  1        4 0.12411810E-02 0.20000494E+02</pdfrwt>
<pdfrwt beam="2">  1       -4 0.19070391E-02 0.20000494E+02</pdfrwt>
<totfact> 0.12985833E+06</totfact>
</mgrwt>
</event>
<event>
 5    1  0.1154861E-006  0.2000065E+02  0.7818608E-02  0.1745315E+00
          4   -1    0    0  501    0  0.00000000000E+00  0.00000000000E+00  0.70581075675E+02  0.70595358512E+02  0.14200000000E+01 0. -1.
         -4   -1    0    0    0  501 -0.00000000000E+00 -0.00000000000E+00 -0.10429949376E+01  0.17618849111E+01  0.14200000000E+01 0.  1.
       1023    2    1    2    0    0  0.00000000000E+00  0.00000000000E+00  0.69538080737E+02  0.72357243423E+02  0.20000650068E+02 0.  0.
        -11    1    3    3    0    0 -0.93292415320E+01  0.36013693202E+01  0.34611679581E+02  0.36027391971E+02  0.51100000000E-03 0. -1.
         11    1    3    3    0    0  0.93292415320E+01 -0.36013693202E+01  0.34926401157E+02  0.36329851452E+02  0.51100000000E-03 0.  1.
<mgrwt>
<rscale>  0 0.20000650E+02</rscale>
<asrwt>0</asrwt>
<pdfrwt beam="1">  1        4 0.10915023E-01 0.20000650E+02</pdfrwt>
<pdfrwt beam="2">  1       -4 0.21685870E-03 0.20000650E+02</pdfrwt>
<totfact> 0.10667666E+06</totfact>
</mgrwt>
</event>
<event>
 5    1  0.1154861E-006  0.2000814E+02  0.7818608E-02  0.1745166E+00
         -4   -1    0    0    0  501 -0.00000000000E+00  0.00000000000E+00  0.11073107406E+03  0.11074017862E+03  0.14200000000E+01 0. -1.
          4   -1    0    0  501    0  0.00000000000E+00 -0.00000000000E+00 -0.33120486724E+00  0.14581140779E+01  0.14200000000E+01 0.  1.
       1023    2    1    2    0    0  0.00000000000E+00  0.00000000000E+00  0.11039986919E+03  0.11219829270E+03  0.20008142548E+02 0.  0.
        -11    1    3    3    0    0 -0.23072896407E+01  0.97315018959E+01  0.53876163355E+02  0.54796593806E+02  0.51100000000E-03 0.  1.
         11    1    3    3    0    0  0.23072896407E+01 -0.97315018959E+01  0.56523705834E+02  0.57401698896E+02  0.51100000000E-03 0. -1.
<mgrwt>
<rscale>  0 0.20008143E+02</rscale>
<asrwt>0</asrwt>
<pdfrwt beam="2">  1        4 0.13834029E-03 0.20008143E+02</pdfrwt>
<pdfrwt beam="1">  1       -4 0.17122933E-01 0.20008143E+02</pdfrwt>
<totfact> 0.94592318E+05</totfact>
</mgrwt>
</event>
<event>
 5    1  0.1154861E-006  0.2000104E+02  0.7818608E-02  0.1745307E+00
          4   -1    0    0  501    0  0.00000000000E+00  0.00000000000E+00  0.11099116807E+03  0.11100025130E+03  0.14200000000E+01 0. -1.
         -4   -1    0    0    0  501 -0.00000000000E+00 -0.00000000000E+00 -0.32673965063E+00  0.14571063102E+01  0.14200000000E+01 0.  1.
       1023    2    1    2    0    0  0.00000000000E+00  0.00000000000E+00  0.11066442842E+03  0.11245735761E+03  0.20001039077E+02 0.  0.
        -11    1    3    3    0    0 -0.94513228036E+01 -0.32668916864E+01  0.54761397999E+02  0.55666963229E+02  0.51100000000E-03 0.  1.
         11    1    3    3    0    0  0.94513228036E+01  0.32668916864E+01  0.55903030420E+02  0.56790394385E+02  0.51100000000E-03 0. -1.
<mgrwt>
<rscale>  0 0.20001039E+02</rscale>
<asrwt>0</asrwt>
<pdfrwt beam="1">  1        4 0.17163208E-01 0.20001039E+02</pdfrwt>
<pdfrwt beam="2">  1       -4 0.13791768E-03 0.20001039E+02</pdfrwt>
<totfact> 0.94590926E+05</totfact>
</mgrwt>
</event>
<event>
 5    1  0.1154861E-006  0.2000391E+02  0.7818608E-02  0.1745250E+00
         -4   -1    0    0    0  501 -0.00000000000E+00  0.00000000000E+00  0.29258631345E+02  0.29293069286E+02  0.14200000000E+01 0.  1.
          4   -1    0    0  501    0  0.00000000000E+00 -0.00000000000E+00 -0.32335675447E+01  0.35316227242E+01  0.14200000000E+01 0. -1.
       1023    2    1    2    0    0  0.00000000000E+00  0.00000000000E+00  0.26025063800E+02  0.32824692010E+02  0.20003911111E+02 0.  0.
        -11    1    3    3    0    0  0.20107221873E+01  0.97975131617E+01  0.12898293115E+02  0.16321771760E+02  0.51100000000E-03 0.  1.
         11    1    3    3    0    0 -0.20107221873E+01 -0.97975131617E+01  0.13126770686E+02  0.16502920250E+02  0.51100000000E-03 0. -1.
<mgrwt>
<rscale>  0 0.20003911E+02</rscale>
<asrwt>0</asrwt>
<pdfrwt beam="2">  1        4 0.52304833E-03 0.20003911E+02</pdfrwt>
<pdfrwt beam="1">  1       -4 0.45269042E-02 0.20003911E+02</pdfrwt>
<totfact> 0.12305671E+06</totfact>
</mgrwt>
</event>
<event>
 5    1  0.1154861E-006  0.2000187E+02  0.7818608E-02  0.1745291E+00
         -4   -1    0    0    0  501 -0.00000000000E+00  0.00000000000E+00  0.98053768726E+01  0.99076644883E+01  0.14200000000E+01 0. -1.
          4   -1    0    0  501    0  0.00000000000E+00 -0.00000000000E+00 -0.99947312927E+01  0.10095100476E+02  0.14200000000E+01 0.  1.
       1023    2    1    2    0    0  0.00000000000E+00  0.00000000000E+00 -0.18935442012E+00  0.20002764964E+02  0.20001868690E+02 0.  0.
        -11    1    3    3    0    0 -0.85582862186E+01 -0.51741015169E+01 -0.15033946736E+00  0.10001909404E+02  0.51100000000E-03 0. -1.
         11    1    3    3    0    0  0.85582862186E+01  0.51741015169E+01 -0.39014952764E-01  0.10000855560E+02  0.51100000000E-03 0.  1.
<mgrwt>
<rscale>  0 0.20001869E+02</rscale>
<asrwt>0</asrwt>
<pdfrwt beam="2">  1        4 0.15532400E-02 0.20001869E+02</pdfrwt>
<pdfrwt beam="1">  1       -4 0.15241085E-02 0.20001869E+02</pdfrwt>
<totfact> 0.13011398E+06</totfact>
</mgrwt>
</event>
<event>
 5    1  0.1154861E-006  0.2000065E+02  0.7818608E-02  0.1745315E+00
         -4   -1    0    0    0  501 -0.00000000000E+00  0.00000000000E+00  0.24938484402E+02  0.24978879163E+02  0.14200000000E+01 0.  1.
          4   -1    0    0  501    0  0.00000000000E+00 -0.00000000000E+00 -0.38392899078E+01  0.40934761507E+01  0.14200000000E+01 0. -1.
       1023    2    1    2    0    0  0.00000000000E+00  0.00000000000E+00  0.21099194494E+02  0.29072355314E+02  0.20000645870E+02 0.  0.
        -11    1    3    3    0    0  0.14075835835E+01 -0.99007293182E+01  0.10510432627E+02  0.14507754025E+02  0.51100000000E-03 0.  1.
         11    1    3    3    0    0 -0.14075835835E+01  0.99007293182E+01  0.10588761867E+02  0.14564601289E+02  0.51100000000E-03 0. -1.
<mgrwt>
<rscale>  0 0.20000646E+02</rscale>
<asrwt>0</asrwt>
<pdfrwt beam="2">  1        4 0.61332006E-03 0.20000646E+02</pdfrwt>
<pdfrwt beam="1">  1       -4 0.38593500E-02 0.20000646E+02</pdfrwt>
<totfact> 0.12503657E+06</totfact>
</mgrwt>
</event>
<event>
 5    1  0.1156672E-006  0.2000138E+02  0.7818608E-02  0.1745301E+00
          4   -1    0    0  501    0  0.00000000000E+00  0.00000000000E+00  0.40958836239E+01  0.43350504796E+01  0.14200000000E+01 0. -1.
         -4   -1    0    0    0  501 -0.00000000000E+00 -0.00000000000E+00 -0.23464196345E+02  0.23507124667E+02  0.14200000000E+01 0.  1.
       1023    2    1    2    0    0  0.00000000000E+00  0.00000000000E+00 -0.19368312721E+02  0.27842175146E+02  0.20001379433E+02 0.  0.
        -11    1    3    3    0    0 -0.89753037239E+01 -0.44110529815E+01 -0.96588996792E+01  0.13903517850E+02  0.51100000000E-03 0. -1.
         11    1    3    3    0    0  0.89753037239E+01  0.44110529815E+01 -0.97094130416E+01  0.13938657296E+02  0.51100000000E-03 0.  1.
<mgrwt>
<rscale>  0 0.20001379E+02</rscale>
<asrwt>0</asrwt>
<pdfrwt beam="1">  1        4 0.65183559E-03 0.20001379E+02</pdfrwt>
<pdfrwt beam="2">  1       -4 0.36315759E-02 0.20001379E+02</pdfrwt>
<totfact> 0.12568255E+06</totfact>
</mgrwt>
</event>
<event>
 5    1  0.1154861E-006  0.2000200E+02  0.7818608E-02  0.1745288E+00
         -4   -1    0    0    0  501 -0.00000000000E+00  0.00000000000E+00  0.17698477302E+01  0.22690881403E+01  0.14200000000E+01 0.  1.
          4   -1    0    0  501    0  0.00000000000E+00 -0.00000000000E+00 -0.49017104096E+02  0.49037668113E+02  0.14200000000E+01 0. -1.
       1023    2    1    2    0    0  0.00000000000E+00  0.00000000000E+00 -0.47247256365E+02  0.51306756253E+02  0.20001999978E+02 0.  0.
        -11    1    3    3    0    0 -0.96202520700E+01  0.27317863838E+01 -0.23854396906E+02  0.25865887937E+02  0.51100000000E-03 0. -1.
         11    1    3    3    0    0  0.96202520700E+01 -0.27317863838E+01 -0.23392859459E+02  0.25440868316E+02  0.51100000000E-03 0.  1.
<mgrwt>
<rscale>  0 0.20002000E+02</rscale>
<asrwt>0</asrwt>
<pdfrwt beam="2">  1        4 0.75810770E-02 0.20002000E+02</pdfrwt>
<pdfrwt beam="1">  1       -4 0.31226926E-03 0.20002000E+02</pdfrwt>
<totfact> 0.11463296E+06</totfact>
</mgrwt>
</event>
<event>
 5    1  0.1154861E-006  0.2000026E+02  0.7818608E-02  0.1745323E+00
         -4   -1    0    0    0  501 -0.00000000000E+00  0.00000000000E+00  0.21443884074E+00  0.14361002808E+01  0.14200000000E+01 0. -1.
          4   -1    0    0  501    0  0.00000000000E+00 -0.00000000000E+00 -0.11994675823E+03  0.11995516333E+03  0.14200000000E+01 0.  1.
       1023    2    1    2    0    0  0.00000000000E+00  0.00000000000E+00 -0.11973231938E+03  0.12139126361E+03  0.20000264374E+02 0.  0.
        -11    1    3    3    0    0  0.70807315504E+01 -0.70614195273E+01 -0.59578997525E+02  0.60412394021E+02  0.51100000000E-03 0. -1.
         11    1    3    3    0    0 -0.70807315504E+01  0.70614195273E+01 -0.60153321859E+02  0.60978869586E+02  0.51100000000E-03 0.  1.
<mgrwt>
<rscale>  0 0.20000264E+02</rscale>
<asrwt>0</asrwt>
<pdfrwt beam="2">  1        4 0.18547954E-01 0.20000264E+02</pdfrwt>
<pdfrwt beam="1">  1       -4 0.12761119E-03 0.20000264E+02</pdfrwt>
<totfact> 0.92306790E+05</totfact>
</mgrwt>
</event>
<event>
 5    1  0.1154861E-006  0.2000267E+02  0.7818608E-02  0.1745275E+00
         -4   -1    0    0    0  501 -0.00000000000E+00  0.00000000000E+00  0.26121496702E+02  0.26160064793E+02  0.14200000000E+01 0.  1.
          4   -1    0    0  501    0  0.00000000000E+00 -0.00000000000E+00 -0.36547095628E+01  0.39208802569E+01  0.14200000000E+01 0. -1.
       1023    2    1    2    0    0  0.00000000000E+00  0.00000000000E+00  0.22466787139E+02  0.30080945050E+02  0.20002668090E+02 0.  0.
        -11    1    3    3    0    0 -0.93765806624E+01 -0.34793848148E+01  0.11259389227E+02  0.15059888102E+02  0.51100000000E-03 0.  1.
         11    1    3    3    0    0  0.93765806624E+01  0.34793848148E+01  0.11207397912E+02  0.15021056948E+02  0.51100000000E-03 0. -1.
<mgrwt>
<rscale>  0 0.20002668E+02</rscale>
<asrwt>0</asrwt>
<pdfrwt beam="2">  1        4 0.58570447E-03 0.20002668E+02</pdfrwt>
<pdfrwt beam="1">  1       -4 0.40421332E-02 0.20002668E+02</pdfrwt>
<totfact> 0.12448140E+06</totfact>
</mgrwt>
</event>
<event>
 5    1  0.1154861E-006  0.2000055E+02  0.7818608E-02  0.1745317E+00
          4   -1    0    0  501    0  0.00000000000E+00  0.00000000000E+00  0.27255105770E+02  0.27292071936E+02  0.14200000000E+01 0.  1.
         -4   -1    0    0    0  501 -0.00000000000E+00 -0.00000000000E+00 -0.34908101131E+01  0.37685746968E+01  0.14200000000E+01 0. -1.
       1023    2    1    2    0    0  0.00000000000E+00  0.00000000000E+00  0.23764295657E+02  0.31060646632E+02  0.20000550521E+02 0.  0.
        -11    1    3    3    0    0 -0.29288312778E+00 -0.99959484411E+01  0.11839923011E+02  0.15498017388E+02  0.51100000000E-03 0. -1.
         11    1    3    3    0    0  0.29288312778E+00  0.99959484411E+01  0.11924372646E+02  0.15562629245E+02  0.51100000000E-03 0.  1.
<mgrwt>
<rscale>  0 0.20000551E+02</rscale>
<asrwt>0</asrwt>
<pdfrwt beam="1">  1        4 0.42173032E-02 0.20000551E+02</pdfrwt>
<pdfrwt beam="2">  1       -4 0.56125778E-03 0.20000551E+02</pdfrwt>
<totfact> 0.12400015E+06</totfact>
</mgrwt>
</event>
<event>
 4    1  0.1154861E-006  0.2001434E+02  0.7818608E-02  0.1745043E+00
         -4   -1    0    0    0  501 -0.00000000000E+00  0.00000000000E+00  0.45271741483E+01  0.47446502262E+01  0.14200000000E+01 0. -1.
          4   -1    0    0  501    0  0.00000000000E+00 -0.00000000000E+00 -0.21360077453E+02  0.21407225621E+02  0.14200000000E+01 0.  1.
        -11    1    1    2    0    0 -0.35435249691E+01  0.93541426906E+01 -0.80311779549E+01  0.12827952849E+02  0.51100000000E-03 0. -1.
         11    1    1    2    0    0  0.35435249691E+01 -0.93541426906E+01 -0.88017253498E+01  0.13323922999E+02  0.51100000000E-03 0.  1.
<mgrwt>
<rscale>  0 0.20014344E+02</rscale>
<asrwt>0</asrwt>
<pdfrwt beam="2">  1        4 0.33065214E-02 0.20014344E+02</pdfrwt>
<pdfrwt beam="1">  1       -4 0.71684405E-03 0.20014344E+02</pdfrwt>
<totfact> 0.12643352E+06</totfact>
</mgrwt>
</event>
<event>
 5    1  0.1154861E-006  0.2000028E+02  0.7818608E-02  0.1745323E+00
          4   -1    0    0  501    0  0.00000000000E+00  0.00000000000E+00  0.33562094619E+02  0.33592121029E+02  0.14200000000E+01 0.  1.
         -4   -1    0    0    0  501 -0.00000000000E+00 -0.00000000000E+00 -0.27772134429E+01  0.31191849107E+01  0.14200000000E+01 0. -1.
       1023    2    1    2    0    0  0.00000000000E+00  0.00000000000E+00  0.30784881177E+02  0.36711305940E+02  0.20000276867E+02 0.  0.
        -11    1    3    3    0    0 -0.51134841290E-01  0.99999940506E+01  0.15422748997E+02  0.18381068594E+02  0.51100000000E-03 0.  1.
         11    1    3    3    0    0  0.51134841290E-01 -0.99999940506E+01  0.15362132180E+02  0.18330237346E+02  0.51100000000E-03 0. -1.
<mgrwt>
<rscale>  0 0.20000277E+02</rscale>
<asrwt>0</asrwt>
<pdfrwt beam="1">  1        4 0.51920145E-02 0.20000277E+02</pdfrwt>
<pdfrwt beam="2">  1       -4 0.45587882E-03 0.20000277E+02</pdfrwt>
<totfact> 0.12118176E+06</totfact>
</mgrwt>
</event>
<event>
 5    1  0.1154861E-006  0.2000016E+02  0.7818608E-02  0.1745325E+00
         -4   -1    0    0    0  501 -0.00000000000E+00  0.00000000000E+00  0.80465650918E+01  0.81709001816E+01  0.14200000000E+01 0.  1.
          4   -1    0    0  501    0  0.00000000000E+00 -0.00000000000E+00 -0.12166634206E+02  0.12249219889E+02  0.14200000000E+01 0. -1.
       1023    2    1    2    0    0  0.00000000000E+00  0.00000000000E+00 -0.41200691138E+01  0.20420120071E+02  0.20000158354E+02 0.  0.
        -11    1    3    3    0    0  0.58412074109E+01  0.81166979671E+01 -0.20262738983E+01  0.10203248310E+02  0.51100000000E-03 0.  1.
         11    1    3    3    0    0 -0.58412074109E+01 -0.81166979671E+01 -0.20937952154E+01  0.10216871761E+02  0.51100000000E-03 0. -1.
<mgrwt>
<rscale>  0 0.20000158E+02</rscale>
<asrwt>0</asrwt>
<pdfrwt beam="2">  1        4 0.18877069E-02 0.20000158E+02</pdfrwt>
<pdfrwt beam="1">  1       -4 0.12538501E-02 0.20000158E+02</pdfrwt>
<totfact> 0.12988845E+06</totfact>
</mgrwt>
</event>
<event>
 5    1  0.1154861E-006  0.2001009E+02  0.7818608E-02  0.1745128E+00
          4   -1    0    0  501    0  0.00000000000E+00  0.00000000000E+00  0.32337412781E+02  0.32368575275E+02  0.14200000000E+01 0.  1.
         -4   -1    0    0    0  501 -0.00000000000E+00 -0.00000000000E+00 -0.28981918463E+01  0.32273698235E+01  0.14200000000E+01 0. -1.
       1023    2    1    2    0    0  0.00000000000E+00  0.00000000000E+00  0.29439220935E+02  0.35595945099E+02  0.20010086913E+02 0.  0.
        -11    1    3    3    0    0  0.46261227318E+01 -0.88696564401E+01  0.14416270666E+02  0.17547098822E+02  0.51100000000E-03 0.  1.
         11    1    3    3    0    0 -0.46261227318E+01  0.88696564401E+01  0.15022950269E+02  0.18048846277E+02  0.51100000000E-03 0. -1.
<mgrwt>
<rscale>  0 0.20010087E+02</rscale>
<asrwt>0</asrwt>
<pdfrwt beam="1">  1        4 0.50027049E-02 0.20010087E+02</pdfrwt>
<pdfrwt beam="2">  1       -4 0.47359418E-03 0.20010087E+02</pdfrwt>
<totfact> 0.12160293E+06</totfact>
</mgrwt>
</event>
<event>
 5    1  0.1154861E-006  0.2000027E+02  0.7818608E-02  0.1745323E+00
         -4   -1    0    0    0  501 -0.00000000000E+00  0.00000000000E+00  0.94738872631E+00  0.17070282361E+01  0.14200000000E+01 0. -1.
          4   -1    0    0  501    0  0.00000000000E+00 -0.00000000000E+00 -0.74579847331E+02  0.74593364503E+02  0.14200000000E+01 0.  1.
       1023    2    1    2    0    0  0.00000000000E+00  0.00000000000E+00 -0.73632458605E+02  0.76300392740E+02  0.20000274298E+02 0.  0.
        -11    1    3    3    0    0  0.22791477052E+01 -0.97369416905E+01 -0.36762957168E+02  0.38098786959E+02  0.51100000000E-03 0.  1.
         11    1    3    3    0    0 -0.22791477052E+01  0.97369416905E+01 -0.36869501437E+02  0.38201605780E+02  0.51100000000E-03 0. -1.
<mgrwt>
<rscale>  0 0.20000274E+02</rscale>
<asrwt>0</asrwt>
<pdfrwt beam="2">  1        4 0.11533293E-01 0.20000274E+02</pdfrwt>
<pdfrwt beam="1">  1       -4 0.20522576E-03 0.20000274E+02</pdfrwt>
<totfact> 0.10533495E+06</totfact>
</mgrwt>
</event>
<event>
 4    1  0.1154861E-006  0.2004657E+02  0.7818608E-02  0.1744404E+00
          4   -1    0    0  501    0  0.00000000000E+00  0.00000000000E+00  0.10273957890E+02  0.10371625269E+02  0.14200000000E+01 0. -1.
         -4   -1    0    0    0  501 -0.00000000000E+00 -0.00000000000E+00 -0.95822329962E+01  0.96868771641E+01  0.14200000000E+01 0.  1.
        -11    1    1    2    0    0 -0.83235999984E+01  0.55650896193E+01 -0.11671072161E+00  0.10013299209E+02  0.51100000000E-03 0.  1.
         11    1    1    2    0    0  0.83235999984E+01 -0.55650896193E+01  0.80843561531E+00  0.10045203224E+02  0.51100000000E-03 0. -1.
<mgrwt>
<rscale>  0 0.20046572E+02</rscale>
<asrwt>0</asrwt>
<pdfrwt beam="1">  1        4 0.15961713E-02 0.20046572E+02</pdfrwt>
<pdfrwt beam="2">  1       -4 0.14897521E-02 0.20046572E+02</pdfrwt>
<totfact> 0.12948908E+06</totfact>
</mgrwt>
</event>
<event>
 5    1  0.1154861E-006  0.2000051E+02  0.7818608E-02  0.1745318E+00
          4   -1    0    0  501    0  0.00000000000E+00  0.00000000000E+00  0.84605401820E+02  0.84617317477E+02  0.14200000000E+01 0.  1.
         -4   -1    0    0    0  501 -0.00000000000E+00 -0.00000000000E+00 -0.73913000273E+00  0.16008476383E+01  0.14200000000E+01 0. -1.
       1023    2    1    2    0    0  0.00000000000E+00  0.00000000000E+00  0.83866271817E+02  0.86218165116E+02  0.20000511179E+02 0.  0.
        -11    1    3    3    0    0 -0.80875885120E+01 -0.58817531124E+01  0.41796545305E+02  0.42976217927E+02  0.51100000000E-03 0.  1.
         11    1    3    3    0    0  0.80875885120E+01  0.58817531124E+01  0.42069726512E+02  0.43241947189E+02  0.51100000000E-03 0. -1.
<mgrwt>
<rscale>  0 0.20000511E+02</rscale>
<asrwt>0</asrwt>
<pdfrwt beam="1">  1        4 0.13083421E-01 0.20000511E+02</pdfrwt>
<pdfrwt beam="2">  1       -4 0.18091483E-03 0.20000511E+02</pdfrwt>
<totfact> 0.10211913E+06</totfact>
</mgrwt>
</event>
<event>
 5    1  0.1154861E-006  0.2000034E+02  0.7818608E-02  0.1745321E+00
         -4   -1    0    0    0  501 -0.00000000000E+00  0.00000000000E+00  0.58694118711E+02  0.58711293387E+02  0.14200000000E+01 0.  1.
          4   -1    0    0  501    0  0.00000000000E+00 -0.00000000000E+00 -0.13874067715E+01  0.19852701453E+01  0.14200000000E+01 0. -1.
       1023    2    1    2    0    0  0.00000000000E+00  0.00000000000E+00  0.57306711939E+02  0.60696563533E+02  0.20000339782E+02 0.  0.
        -11    1    3    3    0    0 -0.64524514841E+01  0.76398771145E+01  0.28534065337E+02  0.30235653414E+02  0.51100000000E-03 0.  1.
         11    1    3    3    0    0  0.64524514841E+01 -0.76398771145E+01  0.28772646602E+02  0.30460910119E+02  0.51100000000E-03 0. -1.
<mgrwt>
<rscale>  0 0.20000340E+02</rscale>
<asrwt>0</asrwt>
<pdfrwt beam="2">  1        4 0.26075786E-03 0.20000340E+02</pdfrwt>
<pdfrwt beam="1">  1       -4 0.90771736E-02 0.20000340E+02</pdfrwt>
<totfact> 0.11091813E+06</totfact>
</mgrwt>
</event>
<event>
 5    1  0.1179107E-006  0.2000072E+02  0.7818608E-02  0.1745314E+00
         -4   -1    0    0    0  501 -0.00000000000E+00  0.00000000000E+00  0.39858137809E+01  0.42312068605E+01  0.14200000000E+01 0.  1.
          4   -1    0    0  501    0  0.00000000000E+00 -0.00000000000E+00 -0.24074525218E+02  0.24116367149E+02  0.14200000000E+01 0. -1.
       1023    2    1    2    0    0  0.00000000000E+00  0.00000000000E+00 -0.20088711437E+02  0.28347574010E+02  0.20000715613E+02 0.  0.
        -11    1    3    3    0    0 -0.61741709821E+01  0.78667283904E+01 -0.10096491671E+02  0.14210733521E+02  0.51100000000E-03 0.  1.
         11    1    3    3    0    0  0.61741709821E+01 -0.78667283904E+01 -0.99922197662E+01  0.14136840489E+02  0.51100000000E-03 0. -1.
<mgrwt>
<rscale>  0 0.20000716E+02</rscale>
<asrwt>0</asrwt>
<pdfrwt beam="2">  1        4 0.37258680E-02 0.20000716E+02</pdfrwt>
<pdfrwt beam="1">  1       -4 0.63529713E-03 0.20000716E+02</pdfrwt>
<totfact> 0.12542052E+06</totfact>
</mgrwt>
</event>
<event>
 5    1  0.1154861E-006  0.2000283E+02  0.7818608E-02  0.1745272E+00
          4   -1    0    0  501    0  0.00000000000E+00  0.00000000000E+00  0.42027623101E+01  0.44361707626E+01  0.14200000000E+01 0. -1.
         -4   -1    0    0    0  501 -0.00000000000E+00 -0.00000000000E+00 -0.22901570384E+02  0.22945551335E+02  0.14200000000E+01 0.  1.
       1023    2    1    2    0    0  0.00000000000E+00  0.00000000000E+00 -0.18698808074E+02  0.27381722098E+02  0.20002831840E+02 0.  0.
        -11    1    3    3    0    0  0.70731737463E+01 -0.70697545073E+01 -0.91703745485E+01  0.13568602922E+02  0.51100000000E-03 0.  1.
         11    1    3    3    0    0 -0.70731737463E+01  0.70697545073E+01 -0.95284335257E+01  0.13813119175E+02  0.51100000000E-03 0. -1.
<mgrwt>
<rscale>  0 0.20002832E+02</rscale>
<asrwt>0</asrwt>
<pdfrwt beam="1">  1        4 0.66791648E-03 0.20002832E+02</pdfrwt>
<pdfrwt beam="2">  1       -4 0.35446561E-02 0.20002832E+02</pdfrwt>
<totfact> 0.12591193E+06</totfact>
</mgrwt>
</event>
<event>
 5    1  0.1154861E-006  0.2000020E+02  0.7818608E-02  0.1745324E+00
         -4   -1    0    0    0  501 -0.00000000000E+00  0.00000000000E+00  0.79155180255E+02  0.79167916237E+02  0.14200000000E+01 0. -1.
          4   -1    0    0  501    0  0.00000000000E+00 -0.00000000000E+00 -0.84737614348E+00  0.16536161370E+01  0.14200000000E+01 0.  1.
       1023    2    1    2    0    0  0.00000000000E+00  0.00000000000E+00  0.78307804112E+02  0.80821532374E+02  0.20000197759E+02 0.  0.
        -11    1    3    3    0    0 -0.83532599462E+01  0.54977272883E+01  0.39135706066E+02  0.40393136133E+02  0.51100000000E-03 0.  1.
         11    1    3    3    0    0  0.83532599462E+01 -0.54977272883E+01  0.39172098046E+02  0.40428396241E+02  0.51100000000E-03 0. -1.
<mgrwt>
<rscale>  0 0.20000198E+02</rscale>
<asrwt>0</asrwt>
<pdfrwt beam="2">  1        4 0.19336367E-03 0.20000198E+02</pdfrwt>
<pdfrwt beam="1">  1       -4 0.12240721E-01 0.20000198E+02</pdfrwt>
<totfact> 0.10384183E+06</totfact>
</mgrwt>
</event>
<event>
 5    1  0.1181577E-006  0.2000078E+02  0.7818608E-02  0.1745313E+00
          4   -1    0    0  501    0  0.00000000000E+00  0.00000000000E+00  0.60914892453E+01  0.62548094476E+01  0.14200000000E+01 0.  1.
         -4   -1    0    0    0  501 -0.00000000000E+00 -0.00000000000E+00 -0.16005276936E+02  0.16068145189E+02  0.14200000000E+01 0. -1.
       1023    2    1    2    0    0  0.00000000000E+00  0.00000000000E+00 -0.99137876910E+01  0.22322954636E+02  0.20000777918E+02 0.  0.
        -11    1    3    3    0    0  0.99379292199E+01 -0.11137104683E+01 -0.50357423366E+01  0.11196494511E+02  0.51100000000E-03 0. -1.
         11    1    3    3    0    0 -0.99379292199E+01  0.11137104683E+01 -0.48780453544E+01  0.11126460126E+02  0.51100000000E-03 0.  1.
<mgrwt>
<rscale>  0 0.20000778E+02</rscale>
<asrwt>0</asrwt>
<pdfrwt beam="1">  1        4 0.95455131E-03 0.20000778E+02</pdfrwt>
<pdfrwt beam="2">  1       -4 0.24797494E-02 0.20000778E+02</pdfrwt>
<totfact> 0.12876501E+06</totfact>
</mgrwt>
</event>
<event>
 5    1  0.1154861E-006  0.2000036E+02  0.7818608E-02  0.1745321E+00
         -4   -1    0    0    0  501 -0.00000000000E+00  0.00000000000E+00  0.12377979955E+01  0.18837579138E+01  0.14200000000E+01 0.  1.
          4   -1    0    0  501    0  0.00000000000E+00 -0.00000000000E+00 -0.63417341011E+02  0.63433236879E+02  0.14200000000E+01 0. -1.
       1023    2    1    2    0    0  0.00000000000E+00  0.00000000000E+00 -0.62179543016E+02  0.65316994793E+02  0.20000355974E+02 0.  0.
        -11    1    3    3    0    0  0.74773313278E+01 -0.66401548127E+01 -0.30966716040E+02  0.32541352804E+02  0.51100000000E-03 0.  1.
         11    1    3    3    0    0 -0.74773313278E+01  0.66401548127E+01 -0.31212826975E+02  0.32775641989E+02  0.51100000000E-03 0. -1.
<mgrwt>
<rscale>  0 0.20000356E+02</rscale>
<asrwt>0</asrwt>
<pdfrwt beam="2">  1        4 0.98074240E-02 0.20000356E+02</pdfrwt>
<pdfrwt beam="1">  1       -4 0.24134249E-03 0.20000356E+02</pdfrwt>
<totfact> 0.10918931E+06</totfact>
</mgrwt>
</event>
<event>
 4    1  0.1154861E-006  0.2002960E+02  0.7818608E-02  0.1744740E+00
         -4   -1    0    0    0  501 -0.00000000000E+00  0.00000000000E+00  0.18293571662E+01  0.23158038867E+01  0.14200000000E+01 0.  1.
          4   -1    0    0  501    0  0.00000000000E+00 -0.00000000000E+00 -0.47893771577E+02  0.47914817706E+02  0.14200000000E+01 0. -1.
        -11    1    1    2    0    0  0.35340557081E+01 -0.93638126257E+01 -0.23921443025E+02  0.25930791991E+02  0.51100000000E-03 0. -1.
         11    1    1    2    0    0 -0.35340557081E+01  0.93638126257E+01 -0.22142971386E+02  0.24299829602E+02  0.51100000000E-03 0.  1.
<mgrwt>
<rscale>  0 0.20029605E+02</rscale>
<asrwt>0</asrwt>
<pdfrwt beam="2">  1        4 0.74073096E-02 0.20029605E+02</pdfrwt>
<pdfrwt beam="1">  1       -4 0.32047751E-03 0.20029605E+02</pdfrwt>
<totfact> 0.11476226E+06</totfact>
</mgrwt>
</event>
<event>
 5    1  0.1154861E-006  0.2000323E+02  0.7818608E-02  0.1745264E+00
         -4   -1    0    0    0  501 -0.00000000000E+00  0.00000000000E+00  0.57271297305E+02  0.57288898532E+02  0.14200000000E+01 0.  1.
          4   -1    0    0  501    0  0.00000000000E+00 -0.00000000000E+00 -0.14371236232E+01  0.20203277725E+01  0.14200000000E+01 0. -1.
       1023    2    1    2    0    0  0.00000000000E+00  0.00000000000E+00  0.55834173682E+02  0.59309226304E+02  0.20003234091E+02 0.  0.
        -11    1    3    3    0    0 -0.71201858304E+01  0.70222993216E+01  0.28362912452E+02  0.30074316901E+02  0.51100000000E-03 0. -1.
         11    1    3    3    0    0  0.71201858304E+01 -0.70222993216E+01  0.27471261230E+02  0.29234909403E+02  0.51100000000E-03 0.  1.
<mgrwt>
<rscale>  0 0.20003234E+02</rscale>
<asrwt>0</asrwt>
<pdfrwt beam="2">  1        4 0.26731177E-03 0.20003234E+02</pdfrwt>
<pdfrwt beam="1">  1       -4 0.88571837E-02 0.20003234E+02</pdfrwt>
<totfact> 0.11141816E+06</totfact>
</mgrwt>
</event>
<event>
 5    1  0.1154861E-006  0.2000126E+02  0.7818608E-02  0.1745303E+00
         -4   -1    0    0    0  501 -0.00000000000E+00  0.00000000000E+00  0.81028809407E+00  0.16349210364E+01  0.14200000000E+01 0.  1.
          4   -1    0    0  501    0  0.00000000000E+00 -0.00000000000E+00 -0.80969923547E+02  0.80982374126E+02  0.14200000000E+01 0. -1.
       1023    2    1    2    0    0  0.00000000000E+00  0.00000000000E+00 -0.80159635453E+02  0.82617295163E+02  0.20001257564E+02 0.  0.
        -11    1    3    3    0    0  0.70218758556E+01  0.71206673668E+01 -0.40261352678E+02  0.41484782318E+02  0.51100000000E-03 0. -1.
         11    1    3    3    0    0 -0.70218758556E+01 -0.71206673668E+01 -0.39898282775E+02  0.41132512845E+02  0.51100000000E-03 0.  1.
<mgrwt>
<rscale>  0 0.20001258E+02</rscale>
<asrwt>0</asrwt>
<pdfrwt beam="2">  1        4 0.12521298E-01 0.20001258E+02</pdfrwt>
<pdfrwt beam="1">  1       -4 0.18905081E-03 0.20001258E+02</pdfrwt>
<totfact> 0.10325136E+06</totfact>
</mgrwt>
</event>
<event>
 5    1  0.1154861E-006  0.2001183E+02  0.7818608E-02  0.1745093E+00
         -4   -1    0    0    0  501 -0.00000000000E+00  0.00000000000E+00  0.88420440408E+02  0.88431842014E+02  0.14200000000E+01 0. -1.
          4   -1    0    0  501    0  0.00000000000E+00 -0.00000000000E+00 -0.67102546275E+00  0.15705652395E+01  0.14200000000E+01 0.  1.
       1023    2    1    2    0    0  0.00000000000E+00  0.00000000000E+00  0.87749414945E+02  0.90002407253E+02  0.20011833703E+02 0.  0.
        -11    1    3    3    0    0  0.78637059884E+00 -0.99708688191E+01  0.45160761052E+02  0.46255063969E+02  0.51100000000E-03 0. -1.
         11    1    3    3    0    0 -0.78637059884E+00  0.99708688191E+01  0.42588653893E+02  0.43747343284E+02  0.51100000000E-03 0.  1.
<mgrwt>
<rscale>  0 0.20011834E+02</rscale>
<asrwt>0</asrwt>
<pdfrwt beam="2">  1        4 0.17330712E-03 0.20011834E+02</pdfrwt>
<pdfrwt beam="1">  1       -4 0.13673216E-01 0.20011834E+02</pdfrwt>
<totfact> 0.10083705E+06</totfact>
</mgrwt>
</event>
<event>
 5    1  0.1154861E-006  0.2000151E+02  0.7818608E-02  0.1745298E+00
         -4   -1    0    0    0  501 -0.00000000000E+00  0.00000000000E+00  0.26756009725E+01  0.30290659557E+01  0.14200000000E+01 0.  1.
          4   -1    0    0  501    0  0.00000000000E+00 -0.00000000000E+00 -0.34695419274E+02  0.34724465706E+02  0.14200000000E+01 0. -1.
       1023    2    1    2    0    0  0.00000000000E+00  0.00000000000E+00 -0.32019818301E+02  0.37753531662E+02  0.20001509666E+02 0.  0.
        -11    1    3    3    0    0  0.40224807203E+01 -0.91558161872E+01 -0.16153358860E+02  0.18998429512E+02  0.51100000000E-03 0. -1.
         11    1    3    3    0    0 -0.40224807203E+01  0.91558161872E+01 -0.15866459441E+02  0.18755102150E+02  0.51100000000E-03 0.  1.
<mgrwt>
<rscale>  0 0.20001510E+02</rscale>
<asrwt>0</asrwt>
<pdfrwt beam="2">  1        4 0.53671805E-02 0.20001510E+02</pdfrwt>
<pdfrwt beam="1">  1       -4 0.44105490E-03 0.20001510E+02</pdfrwt>
<totfact> 0.12066636E+06</totfact>
</mgrwt>
</event>
<event>
 5    1  0.1154861E-006  0.2000016E+02  0.7818608E-02  0.1745325E+00
          4   -1    0    0  501    0  0.00000000000E+00  0.00000000000E+00  0.63070672591E+01  0.64649437283E+01  0.14200000000E+01 0. -1.
         -4   -1    0    0    0  501 -0.00000000000E+00 -0.00000000000E+00 -0.15468692646E+02  0.15533732718E+02  0.14200000000E+01 0.  1.
       1023    2    1    2    0    0  0.00000000000E+00  0.00000000000E+00 -0.91616253867E+01  0.21998676447E+02  0.20000159641E+02 0.  0.
        -11    1    3    3    0    0 -0.25926379208E+01  0.96581328491E+01 -0.45996929998E+01  0.11007201164E+02  0.51100000000E-03 0. -1.
         11    1    3    3    0    0  0.25926379208E+01 -0.96581328491E+01 -0.45619323869E+01  0.10991475282E+02  0.51100000000E-03 0.  1.
<mgrwt>
<rscale>  0 0.20000160E+02</rscale>
<asrwt>0</asrwt>
<pdfrwt beam="1">  1        4 0.98746547E-03 0.20000160E+02</pdfrwt>
<pdfrwt beam="2">  1       -4 0.23969463E-02 0.20000160E+02</pdfrwt>
<totfact> 0.12896091E+06</totfact>
</mgrwt>
</event>
<event>
 5    1  0.1154861E-006  0.2000063E+02  0.7818608E-02  0.1745316E+00
         -4   -1    0    0    0  501 -0.00000000000E+00  0.00000000000E+00  0.15299339095E+01  0.20873662274E+01  0.14200000000E+01 0. -1.
          4   -1    0    0  501    0  0.00000000000E+00 -0.00000000000E+00 -0.54725251353E+02  0.54743671193E+02  0.14200000000E+01 0.  1.
       1023    2    1    2    0    0  0.00000000000E+00  0.00000000000E+00 -0.53195317444E+02  0.56831037420E+02  0.20000625398E+02 0.  0.
        -11    1    3    3    0    0  0.90656573664E+01 -0.42209430883E+01 -0.26423660423E+02  0.28252651813E+02  0.51100000000E-03 0. -1.
         11    1    3    3    0    0 -0.90656573664E+01  0.42209430883E+01 -0.26771657020E+02  0.28578385607E+02  0.51100000000E-03 0.  1.
<mgrwt>
<rscale>  0 0.20000625E+02</rscale>
<asrwt>0</asrwt>
<pdfrwt beam="2">  1        4 0.84635645E-02 0.20000625E+02</pdfrwt>
<pdfrwt beam="1">  1       -4 0.27967081E-03 0.20000625E+02</pdfrwt>
<totfact> 0.11241387E+06</totfact>
</mgrwt>
</event>
<event>
 5    1  0.1154861E-006  0.2000134E+02  0.7818608E-02  0.1745301E+00
         -4   -1    0    0    0  501 -0.00000000000E+00  0.00000000000E+00  0.71464845404E+02  0.71478951648E+02  0.14200000000E+01 0.  1.
          4   -1    0    0  501    0  0.00000000000E+00 -0.00000000000E+00 -0.10212778021E+01  0.17491164481E+01  0.14200000000E+01 0. -1.
       1023    2    1    2    0    0  0.00000000000E+00  0.00000000000E+00  0.70443567602E+02  0.73228068096E+02  0.20001343468E+02 0.  0.
        -11    1    3    3    0    0  0.87770589018E+00  0.99619618907E+01  0.35043078476E+02  0.36442124001E+02  0.51100000000E-03 0.  1.
         11    1    3    3    0    0 -0.87770589018E+00 -0.99619618907E+01  0.35400489126E+02  0.36785944095E+02  0.51100000000E-03 0. -1.
<mgrwt>
<rscale>  0 0.20001343E+02</rscale>
<asrwt>0</asrwt>
<pdfrwt beam="2">  1        4 0.21419233E-03 0.20001343E+02</pdfrwt>
<pdfrwt beam="1">  1       -4 0.11051665E-01 0.20001343E+02</pdfrwt>
<totfact> 0.10636855E+06</totfact>
</mgrwt>
</event>
<event>
 4    1  0.1154861E-006  0.2009085E+02  0.7818608E-02  0.1743527E+00
          4   -1    0    0  501    0  0.00000000000E+00  0.00000000000E+00  0.29102087418E+01  0.32381653634E+01  0.14200000000E+01 0.  1.
         -4   -1    0    0    0  501 -0.00000000000E+00 -0.00000000000E+00 -0.32480825697E+02  0.32511850731E+02  0.14200000000E+01 0. -1.
        -11    1    1    2    0    0  0.53130521435E+01  0.84889613008E+01 -0.16185947207E+02  0.19033546025E+02  0.51100000000E-03 0. -1.
         11    1    1    2    0    0 -0.53130521435E+01 -0.84889613008E+01 -0.13384669748E+02  0.16716470069E+02  0.51100000000E-03 0.  1.
<mgrwt>
<rscale>  0 0.20090850E+02</rscale>
<asrwt>0</asrwt>
<pdfrwt beam="1">  1        4 0.47533842E-03 0.20090850E+02</pdfrwt>
<pdfrwt beam="2">  1       -4 0.50246638E-02 0.20090850E+02</pdfrwt>
<totfact> 0.12053871E+06</totfact>
</mgrwt>
</event>
<event>
 5    1  0.1184434E-006  0.2000155E+02  0.7818608E-02  0.1745297E+00
         -4   -1    0    0    0  501 -0.00000000000E+00  0.00000000000E+00  0.50637073377E+01  0.52590428788E+01  0.14200000000E+01 0. -1.
          4   -1    0    0  501    0  0.00000000000E+00 -0.00000000000E+00 -0.19155578197E+02  0.19208138276E+02  0.14200000000E+01 0.  1.
       1023    2    1    2    0    0  0.00000000000E+00  0.00000000000E+00 -0.14091870859E+02  0.24467181155E+02  0.20001553174E+02 0.  0.
        -11    1    3    3    0    0  0.20969052552E+01 -0.97783634269E+01 -0.71023798194E+01  0.12266099719E+02  0.51100000000E-03 0.  1.
         11    1    3    3    0    0 -0.20969052552E+01  0.97783634269E+01 -0.69894910395E+01  0.12201081436E+02  0.51100000000E-03 0. -1.
<mgrwt>
<rscale>  0 0.20001553E+02</rscale>
<asrwt>0</asrwt>
<pdfrwt beam="2">  1        4 0.29660809E-02 0.20001553E+02</pdfrwt>
<pdfrwt beam="1">  1       -4 0.79810080E-03 0.20001553E+02</pdfrwt>
<totfact> 0.12753428E+06</totfact>
</mgrwt>
</event>
<event>
 5    1  0.1154861E-006  0.2000026E+02  0.7818608E-02  0.1745323E+00
          4   -1    0    0  501    0  0.00000000000E+00  0.00000000000E+00  0.34958245570E+02  0.34987073804E+02  0.14200000000E+01 0. -1.
         -4   -1    0    0    0  501 -0.00000000000E+00 -0.00000000000E+00 -0.26524553577E+01  0.30086407936E+01  0.14200000000E+01 0.  1.
       1023    2    1    2    0    0  0.00000000000E+00  0.00000000000E+00  0.32305790212E+02  0.37995714597E+02  0.20000256161E+02 0.  0.
        -11    1    3    3    0    0  0.67722322666E+01  0.73578730031E+01  0.16216936014E+02  0.19052307969E+02  0.51100000000E-03 0. -1.
         11    1    3    3    0    0 -0.67722322666E+01 -0.73578730031E+01  0.16088854198E+02  0.18943406628E+02  0.51100000000E-03 0.  1.
<mgrwt>
<rscale>  0 0.20000256E+02</rscale>
<asrwt>0</asrwt>
<pdfrwt beam="1">  1        4 0.54078085E-02 0.20000256E+02</pdfrwt>
<pdfrwt beam="2">  1       -4 0.43768645E-03 0.20000256E+02</pdfrwt>
<totfact> 0.12056626E+06</totfact>
</mgrwt>
</event>
<event>
 5    1  0.1154861E-006  0.2000043E+02  0.7818608E-02  0.1745320E+00
          4   -1    0    0  501    0  0.00000000000E+00  0.00000000000E+00  0.17963744237E+02  0.18019780992E+02  0.14200000000E+01 0. -1.
         -4   -1    0    0    0  501 -0.00000000000E+00 -0.00000000000E+00 -0.54105401482E+01  0.55937773190E+01  0.14200000000E+01 0.  1.
       1023    2    1    2    0    0  0.00000000000E+00  0.00000000000E+00  0.12553204089E+02  0.23613558311E+02  0.20000430076E+02 0.  0.
        -11    1    3    3    0    0 -0.97629467281E+01 -0.21647167952E+01  0.63431067074E+01  0.11842133701E+02  0.51100000000E-03 0. -1.
         11    1    3    3    0    0  0.97629467281E+01  0.21647167952E+01  0.62100973815E+01  0.11771424611E+02  0.51100000000E-03 0.  1.
<mgrwt>
<rscale>  0 0.20000430E+02</rscale>
<asrwt>0</asrwt>
<pdfrwt beam="1">  1        4 0.27820586E-02 0.20000430E+02</pdfrwt>
<pdfrwt beam="2">  1       -4 0.85079648E-03 0.20000430E+02</pdfrwt>
<totfact> 0.12803058E+06</totfact>
</mgrwt>
</event>
<event>
 4    1  0.1154861E-006  0.2004165E+02  0.7818608E-02  0.1744501E+00
         -4   -1    0    0    0  501 -0.00000000000E+00  0.00000000000E+00  0.35939432934E+01  0.38643017993E+01  0.14200000000E+01 0. -1.
          4   -1    0    0  501    0  0.00000000000E+00 -0.00000000000E+00 -0.26637815036E+02  0.26675636636E+02  0.14200000000E+01 0.  1.
        -11    1    1    2    0    0 -0.79487313154E+01  0.60977762028E+01 -0.11175289421E+02  0.15008407579E+02  0.51100000000E-03 0. -1.
         11    1    1    2    0    0  0.79487313154E+01 -0.60977762028E+01 -0.11868582322E+02  0.15531530856E+02  0.51100000000E-03 0.  1.
<mgrwt>
<rscale>  0 0.20041652E+02</rscale>
<asrwt>0</asrwt>
<pdfrwt beam="2">  1        4 0.41218314E-02 0.20041652E+02</pdfrwt>
<pdfrwt beam="1">  1       -4 0.57662053E-03 0.20041652E+02</pdfrwt>
<totfact> 0.12375207E+06</totfact>
</mgrwt>
</event>
<event>
 5    1  0.1154861E-006  0.2000983E+02  0.7818608E-02  0.1745133E+00
          4   -1    0    0  501    0  0.00000000000E+00  0.00000000000E+00  0.36718835035E+02  0.36746282075E+02  0.14200000000E+01 0. -1.
         -4   -1    0    0    0  501 -0.00000000000E+00 -0.00000000000E+00 -0.25106655902E+01  0.28844135809E+01  0.14200000000E+01 0.  1.
       1023    2    1    2    0    0  0.00000000000E+00  0.00000000000E+00  0.34208169445E+02  0.39630695656E+02  0.20009827121E+02 0.  0.
        -11    1    3    3    0    0  0.61932709713E+01  0.78569167718E+01  0.17307501102E+02  0.19990931472E+02  0.51100000000E-03 0.  1.
         11    1    3    3    0    0 -0.61932709713E+01 -0.78569167718E+01  0.16900668344E+02  0.19639764184E+02  0.51100000000E-03 0. -1.
<mgrwt>
<rscale>  0 0.20009827E+02</rscale>
<asrwt>0</asrwt>
<pdfrwt beam="1">  1        4 0.56799124E-02 0.20009827E+02</pdfrwt>
<pdfrwt beam="2">  1       -4 0.41711742E-03 0.20009827E+02</pdfrwt>
<totfact> 0.11967925E+06</totfact>
</mgrwt>
</event>
<event>
 5    1  0.1182498E-006  0.2000118E+02  0.7818608E-02  0.1745305E+00
         -4   -1    0    0    0  501 -0.00000000000E+00  0.00000000000E+00  0.41098432238E+02  0.41122956270E+02  0.14200000000E+01 0.  1.
          4   -1    0    0  501    0  0.00000000000E+00 -0.00000000000E+00 -0.21988279197E+01  0.26174881510E+01  0.14200000000E+01 0. -1.
       1023    2    1    2    0    0  0.00000000000E+00  0.00000000000E+00  0.38899604318E+02  0.43740444421E+02  0.20001181517E+02 0.  0.
        -11    1    3    3    0    0 -0.52084885870E+01 -0.85371219784E+01  0.19380294051E+02  0.21808406700E+02  0.51100000000E-03 0.  1.
         11    1    3    3    0    0  0.52084885870E+01  0.85371219784E+01  0.19519310267E+02  0.21932037721E+02  0.51100000000E-03 0. -1.
<mgrwt>
<rscale>  0 0.20001182E+02</rscale>
<asrwt>0</asrwt>
<pdfrwt beam="2">  1        4 0.37237232E-03 0.20001182E+02</pdfrwt>
<pdfrwt beam="1">  1       -4 0.63569267E-02 0.20001182E+02</pdfrwt>
<totfact> 0.11790459E+06</totfact>
</mgrwt>
</event>
<event>
 5    1  0.1154861E-006  0.2000038E+02  0.7818608E-02  0.1745321E+00
          4   -1    0    0  501    0  0.00000000000E+00  0.00000000000E+00  0.35126829083E+01  0.37888443112E+01  0.14200000000E+01 0. -1.
         -4   -1    0    0    0  501 -0.00000000000E+00 -0.00000000000E+00 -0.27097117917E+02  0.27134299317E+02  0.14200000000E+01 0.  1.
       1023    2    1    2    0    0  0.00000000000E+00  0.00000000000E+00 -0.23584435009E+02  0.30923143628E+02  0.20000380925E+02 0.  0.
        -11    1    3    3    0    0  0.99911608481E+01  0.42096865906E+00 -0.11703408323E+02  0.15393838908E+02  0.51100000000E-03 0.  1.
         11    1    3    3    0    0 -0.99911608481E+01 -0.42096865906E+00 -0.11881026686E+02  0.15529304720E+02  0.51100000000E-03 0. -1.
<mgrwt>
<rscale>  0 0.20000381E+02</rscale>
<asrwt>0</asrwt>
<pdfrwt beam="1">  1        4 0.56451606E-03 0.20000381E+02</pdfrwt>
<pdfrwt beam="2">  1       -4 0.41928905E-02 0.20000381E+02</pdfrwt>
<totfact> 0.12407322E+06</totfact>
</mgrwt>
</event>
<event>
 5    1  0.1154861E-006  0.2000005E+02  0.7818608E-02  0.1745327E+00
         -4   -1    0    0    0  501 -0.00000000000E+00  0.00000000000E+00  0.61465558900E+01  0.63084506267E+01  0.14200000000E+01 0. -1.
          4   -1    0    0  501    0  0.00000000000E+00 -0.00000000000E+00 -0.15863862538E+02  0.15927288992E+02  0.14200000000E+01 0.  1.
       1023    2    1    2    0    0  0.00000000000E+00  0.00000000000E+00 -0.97173066478E+01  0.22235739618E+02  0.20000051697E+02 0.  0.
        -11    1    3    3    0    0  0.66558459975E+01 -0.74632371509E+01 -0.48387031751E+01  0.11109151335E+02  0.51100000000E-03 0.  1.
         11    1    3    3    0    0 -0.66558459975E+01  0.74632371509E+01 -0.48786034727E+01  0.11126588283E+02  0.51100000000E-03 0. -1.
<mgrwt>
<rscale>  0 0.20000052E+02</rscale>
<asrwt>0</asrwt>
<pdfrwt beam="2">  1        4 0.24579266E-02 0.20000052E+02</pdfrwt>
<pdfrwt beam="1">  1       -4 0.96295639E-03 0.20000052E+02</pdfrwt>
<totfact> 0.12882496E+06</totfact>
</mgrwt>
</event>
<event>
 4    1  0.1154861E-006  0.2001716E+02  0.7818608E-02  0.1744987E+00
          4   -1    0    0  501    0  0.00000000000E+00  0.00000000000E+00  0.47662192257E+01  0.49732530307E+01  0.14200000000E+01 0.  1.
         -4   -1    0    0    0  501 -0.00000000000E+00 -0.00000000000E+00 -0.20337929300E+02  0.20387441433E+02  0.14200000000E+01 0. -1.
        -11    1    1    2    0    0 -0.13855251709E+01  0.99073907420E+01 -0.81775769422E+01  0.12920868246E+02  0.51100000000E-03 0. -1.
         11    1    1    2    0    0  0.13855251709E+01 -0.99073907420E+01 -0.73941331318E+01  0.12439826218E+02  0.51100000000E-03 0.  1.
<mgrwt>
<rscale>  0 0.20017159E+02</rscale>
<asrwt>0</asrwt>
<pdfrwt beam="1">  1        4 0.75299881E-03 0.20017159E+02</pdfrwt>
<pdfrwt beam="2">  1       -4 0.31486465E-02 0.20017159E+02</pdfrwt>
<totfact> 0.12683347E+06</totfact>
</mgrwt>
</event>
<event>
 5    1  0.1154861E-006  0.2000063E+02  0.7818608E-02  0.1745316E+00
          4   -1    0    0  501    0  0.00000000000E+00  0.00000000000E+00  0.66107171612E+01  0.67615073309E+01  0.14200000000E+01 0. -1.
         -4   -1    0    0    0  501 -0.00000000000E+00 -0.00000000000E+00 -0.14772089654E+02  0.14840183043E+02  0.14200000000E+01 0.  1.
       1023    2    1    2    0    0  0.00000000000E+00  0.00000000000E+00 -0.81613724931E+01  0.21601690374E+02  0.20000625641E+02 0.  0.
        -11    1    3    3    0    0  0.82215660455E+01  0.56928753227E+01 -0.40188438410E+01  0.10777480399E+02  0.51100000000E-03 0. -1.
         11    1    3    3    0    0 -0.82215660455E+01 -0.56928753227E+01 -0.41425286521E+01  0.10824209975E+02  0.51100000000E-03 0.  1.
<mgrwt>
<rscale>  0 0.20000626E+02</rscale>
<asrwt>0</asrwt>
<pdfrwt beam="1">  1        4 0.10338706E-02 0.20000626E+02</pdfrwt>
<pdfrwt beam="2">  1       -4 0.22894664E-02 0.20000626E+02</pdfrwt>
<totfact> 0.12918595E+06</totfact>
</mgrwt>
</event>
<event>
 5    1  0.1154861E-006  0.2000014E+02  0.7818608E-02  0.1745325E+00
         -4   -1    0    0    0  501 -0.00000000000E+00  0.00000000000E+00  0.56892521026E+02  0.56910239402E+02  0.14200000000E+01 0. -1.
          4   -1    0    0  501    0  0.00000000000E+00 -0.00000000000E+00 -0.14499223096E+01  0.20294518235E+01  0.14200000000E+01 0.  1.
       1023    2    1    2    0    0  0.00000000000E+00  0.00000000000E+00  0.55442598717E+02  0.58939691225E+02  0.20000136230E+02 0.  0.
        -11    1    3    3    0    0  0.16349267455E+01  0.98654583173E+01  0.27623170538E+02  0.29377539109E+02  0.51100000000E-03 0.  1.
         11    1    3    3    0    0 -0.16349267455E+01 -0.98654583173E+01  0.27819428179E+02  0.29562152116E+02  0.51100000000E-03 0. -1.
<mgrwt>
<rscale>  0 0.20000136E+02</rscale>
<asrwt>0</asrwt>
<pdfrwt beam="2">  1        4 0.26900709E-03 0.20000136E+02</pdfrwt>
<pdfrwt beam="1">  1       -4 0.87986385E-02 0.20000136E+02</pdfrwt>
<totfact> 0.11159566E+06</totfact>
</mgrwt>
</event>
<event>
 5    1  0.1154861E-006  0.2000626E+02  0.7818608E-02  0.1745204E+00
          4   -1    0    0  501    0  0.00000000000E+00  0.00000000000E+00  0.13672066994E+02  0.13745610786E+02  0.14200000000E+01 0.  1.
         -4   -1    0    0    0  501 -0.00000000000E+00 -0.00000000000E+00 -0.71556332115E+01  0.72951687203E+01  0.14200000000E+01 0.  1.
       1023    2    1    2    0    0  0.00000000000E+00  0.00000000000E+00  0.65164337825E+01  0.21040779507E+02  0.20006261345E+02 0.  0.
        -11    1    3    3    0    0 -0.29620450628E+00  0.99970999267E+01  0.30675151040E+01  0.10461328464E+02  0.51100000000E-03 0.  1.
         11    1    3    3    0    0  0.29620450628E+00 -0.99970999267E+01  0.34489186784E+01  0.10579451043E+02  0.51100000000E-03 0. -1.
<mgrwt>
<rscale>  0 0.20006261E+02</rscale>
<asrwt>0</asrwt>
<pdfrwt beam="1">  1        4 0.21197856E-02 0.20006261E+02</pdfrwt>
<pdfrwt beam="2">  1       -4 0.11172574E-02 0.20006261E+02</pdfrwt>
<totfact> 0.12944074E+06</totfact>
</mgrwt>
</event>
<event>
 5    1  0.1154861E-006  0.2000020E+02  0.7818608E-02  0.1745324E+00
         -4   -1    0    0    0  501 -0.00000000000E+00  0.00000000000E+00  0.19443081968E+02  0.19494866924E+02  0.14200000000E+01 0. -1.
          4   -1    0    0  501    0  0.00000000000E+00 -0.00000000000E+00 -0.49854220397E+01  0.51837084133E+01  0.14200000000E+01 0.  1.
       1023    2    1    2    0    0  0.00000000000E+00  0.00000000000E+00  0.14457659928E+02  0.24678575338E+02  0.20000203752E+02 0.  0.
        -11    1    3    3    0    0 -0.62638215187E+01  0.77952817247E+01  0.72444418184E+01  0.12348433694E+02  0.51100000000E-03 0. -1.
         11    1    3    3    0    0  0.62638215187E+01 -0.77952817247E+01  0.72132181095E+01  0.12330141643E+02  0.51100000000E-03 0.  1.
<mgrwt>
<rscale>  0 0.20000204E+02</rscale>
<asrwt>0</asrwt>
<pdfrwt beam="2">  1        4 0.78622426E-03 0.20000204E+02</pdfrwt>
<pdfrwt beam="1">  1       -4 0.30104797E-02 0.20000204E+02</pdfrwt>
<totfact> 0.12743312E+06</totfact>
</mgrwt>
</event>
<event>
 5    1  0.1191873E-006  0.2000174E+02  0.7818608E-02  0.1745293E+00
         -4   -1    0    0    0  501 -0.00000000000E+00  0.00000000000E+00  0.95833141365E+01  0.96879466266E+01  0.14200000000E+01 0.  1.
          4   -1    0    0  501    0  0.00000000000E+00 -0.00000000000E+00 -0.10225994249E+02  0.10324115380E+02  0.14200000000E+01 0. -1.
       1023    2    1    2    0    0  0.00000000000E+00  0.00000000000E+00 -0.64268011207E+00  0.20012062006E+02  0.20001739625E+02 0.  0.
        -11    1    3    3    0    0 -0.25107558341E+01 -0.96804645166E+01 -0.27539658000E+00  0.10004555545E+02  0.51100000000E-03 0. -1.
         11    1    3    3    0    0  0.25107558341E+01  0.96804645166E+01 -0.36728353207E+00  0.10007506461E+02  0.51100000000E-03 0.  1.
<mgrwt>
<rscale>  0 0.20001740E+02</rscale>
<asrwt>0</asrwt>
<pdfrwt beam="2">  1        4 0.15888263E-02 0.20001740E+02</pdfrwt>
<pdfrwt beam="1">  1       -4 0.14899525E-02 0.20001740E+02</pdfrwt>
<totfact> 0.13011018E+06</totfact>
</mgrwt>
</event>
<event>
 5    1  0.1154861E-006  0.2000197E+02  0.7818608E-02  0.1745289E+00
          4   -1    0    0  501    0  0.00000000000E+00  0.00000000000E+00  0.69865228377E+02  0.69879657527E+02  0.14200000000E+01 0.  1.
         -4   -1    0    0    0  501 -0.00000000000E+00 -0.00000000000E+00 -0.10612421276E+01  0.17727478257E+01  0.14200000000E+01 0. -1.
       1023    2    1    2    0    0  0.00000000000E+00  0.00000000000E+00  0.68803986249E+02  0.71652405353E+02  0.20001966631E+02 0.  0.
        -11    1    3    3    0    0 -0.99300631071E+01 -0.11833840320E+01  0.34812251746E+02  0.36220152166E+02  0.51100000000E-03 0. -1.
         11    1    3    3    0    0  0.99300631071E+01  0.11833840320E+01  0.33991734503E+02  0.35432253187E+02  0.51100000000E-03 0.  1.
<mgrwt>
<rscale>  0 0.20001967E+02</rscale>
<asrwt>0</asrwt>
<pdfrwt beam="1">  1        4 0.10804335E-01 0.20001967E+02</pdfrwt>
<pdfrwt beam="2">  1       -4 0.21910921E-03 0.20001967E+02</pdfrwt>
<totfact> 0.10690741E+06</totfact>
</mgrwt>
</event>
<event>
 4    1  0.1154861E-006  0.2001827E+02  0.7818608E-02  0.1744965E+00
          4   -1    0    0  501    0  0.00000000000E+00  0.00000000000E+00  0.18458319610E+02  0.18512859391E+02  0.14200000000E+01 0.  1.
         -4   -1    0    0    0  501 -0.00000000000E+00 -0.00000000000E+00 -0.52708650140E+01  0.54587927233E+01  0.14200000000E+01 0. -1.
        -11    1    1    2    0    0 -0.75605437696E+01  0.65561237106E+01  0.63596615055E+01  0.11857060130E+02  0.51100000000E-03 0.  1.
         11    1    1    2    0    0  0.75605437696E+01 -0.65561237106E+01  0.68277930909E+01  0.12114591985E+02  0.51100000000E-03 0. -1.
<mgrwt>
<rscale>  0 0.20018270E+02</rscale>
<asrwt>0</asrwt>
<pdfrwt beam="1">  1        4 0.28583928E-02 0.20018270E+02</pdfrwt>
<pdfrwt beam="2">  1       -4 0.82955366E-03 0.20018270E+02</pdfrwt>
<totfact> 0.12759596E+06</totfact>
</mgrwt>
</event>
<event>
 5    1  0.1154861E-006  0.2000204E+02  0.7818608E-02  0.1745288E+00
          4   -1    0    0  501    0  0.00000000000E+00  0.00000000000E+00  0.59861682295E+02  0.59878522086E+02  0.14200000000E+01 0.  1.
         -4   -1    0    0    0  501 -0.00000000000E+00 -0.00000000000E+00 -0.13489162794E+01  0.19585645582E+01  0.14200000000E+01 0. -1.
       1023    2    1    2    0    0  0.00000000000E+00  0.00000000000E+00  0.58512766016E+02  0.61837086644E+02  0.20002037342E+02 0.  0.
        -11    1    3    3    0    0  0.76475098173E+01 -0.64447942836E+01  0.29181008209E+02  0.30847220622E+02  0.51100000000E-03 0.  1.
         11    1    3    3    0    0 -0.76475098173E+01  0.64447942836E+01  0.29331757807E+02  0.30989866022E+02  0.51100000000E-03 0. -1.
<mgrwt>
<rscale>  0 0.20002037E+02</rscale>
<asrwt>0</asrwt>
<pdfrwt beam="1">  1        4 0.92576799E-02 0.20002037E+02</pdfrwt>
<pdfrwt beam="2">  1       -4 0.25571700E-03 0.20002037E+02</pdfrwt>
<totfact> 0.11046619E+06</totfact>
</mgrwt>
</event>
<event>
 4    1  0.1154861E-006  0.2001543E+02  0.7818608E-02  0.1745021E+00
          4   -1    0    0  501    0  0.00000000000E+00  0.00000000000E+00  0.40092159637E+01  0.42532590615E+01  0.14200000000E+01 0. -1.
         -4   -1    0    0    0  501 -0.00000000000E+00 -0.00000000000E+00 -0.23977517332E+02  0.24019528251E+02  0.14200000000E+01 0.  1.
        -11    1    1    2    0    0  0.62288010153E+01  0.78254095561E+01 -0.94961282909E+01  0.13791716702E+02  0.51100000000E-03 0. -1.
         11    1    1    2    0    0 -0.62288010153E+01 -0.78254095561E+01 -0.10472173078E+02  0.14481070611E+02  0.51100000000E-03 0.  1.
<mgrwt>
<rscale>  0 0.20015430E+02</rscale>
<asrwt>0</asrwt>
<pdfrwt beam="1">  1        4 0.63880663E-03 0.20015430E+02</pdfrwt>
<pdfrwt beam="2">  1       -4 0.37108529E-02 0.20015430E+02</pdfrwt>
<totfact> 0.12527294E+06</totfact>
</mgrwt>
</event>
<event>
 5    1  0.1183697E-006  0.2000182E+02  0.7818608E-02  0.1745292E+00
          4   -1    0    0  501    0  0.00000000000E+00  0.00000000000E+00  0.10675740609E+02  0.10769764972E+02  0.14200000000E+01 0.  1.
         -4   -1    0    0    0  501 -0.00000000000E+00 -0.00000000000E+00 -0.91788059573E+01  0.92879964902E+01  0.14200000000E+01 0. -1.
       1023    2    1    2    0    0  0.00000000000E+00  0.00000000000E+00  0.14969346519E+01  0.20057761462E+02  0.20001824455E+02 0.  0.
        -11    1    3    3    0    0  0.57674399885E+01 -0.81696505060E+01  0.85689792890E+00  0.10036973036E+02  0.51100000000E-03 0. -1.
         11    1    3    3    0    0 -0.57674399885E+01  0.81696505060E+01  0.64003672305E+00  0.10020788426E+02  0.51100000000E-03 0.  1.
<mgrwt>
<rscale>  0 0.20001824E+02</rscale>
<asrwt>0</asrwt>
<pdfrwt beam="1">  1        4 0.16580535E-02 0.20001824E+02</pdfrwt>
<pdfrwt beam="2">  1       -4 0.14277559E-02 0.20001824E+02</pdfrwt>
<totfact> 0.13008194E+06</totfact>
</mgrwt>
</event>
<event>
 5    1  0.1154861E-006  0.2000048E+02  0.7818608E-02  0.1745319E+00
         -4   -1    0    0    0  501 -0.00000000000E+00  0.00000000000E+00  0.11064465548E+03  0.11065376716E+03  0.14200000000E+01 0.  1.
          4   -1    0    0  501    0  0.00000000000E+00 -0.00000000000E+00 -0.33121397472E+00  0.14581161466E+01  0.14200000000E+01 0. -1.
       1023    2    1    2    0    0  0.00000000000E+00  0.00000000000E+00  0.11031344151E+03  0.11211188331E+03  0.20000475030E+02 0.  0.
        -11    1    3    3    0    0  0.16458400284E+01 -0.98638674387E+01  0.55106632893E+02  0.56006657277E+02  0.51100000000E-03 0.  1.
         11    1    3    3    0    0 -0.16458400284E+01  0.98638674387E+01  0.55206808615E+02  0.56105226031E+02  0.51100000000E-03 0. -1.
<mgrwt>
<rscale>  0 0.20000475E+02</rscale>
<asrwt>0</asrwt>
<pdfrwt beam="2">  1        4 0.13834161E-03 0.20000475E+02</pdfrwt>
<pdfrwt beam="1">  1       -4 0.17109648E-01 0.20000475E+02</pdfrwt>
<totfact> 0.94687319E+05</totfact>
</mgrwt>
</event>
<event>
 4    1  0.1154861E-006  0.2003049E+02  0.7818608E-02  0.1744722E+00
         -4   -1    0    0    0  501 -0.00000000000E+00  0.00000000000E+00  0.28122253902E+02  0.28158081691E+02  0.14200000000E+01 0.  1.
          4   -1    0    0  501    0  0.00000000000E+00 -0.00000000000E+00 -0.33857003520E+01  0.36714257276E+01  0.14200000000E+01 0. -1.
        -11    1    1    2    0    0  0.41331389862E+01 -0.91059840025E+01  0.13243457650E+02  0.16594907452E+02  0.51100000000E-03 0. -1.
         11    1    1    2    0    0 -0.41331389862E+01  0.91059840025E+01  0.11493095900E+02  0.15234599967E+02  0.51100000000E-03 0.  1.
<mgrwt>
<rscale>  0 0.20030488E+02</rscale>
<asrwt>0</asrwt>
<pdfrwt beam="2">  1        4 0.54561183E-03 0.20030488E+02</pdfrwt>
<pdfrwt beam="1">  1       -4 0.43512355E-02 0.20030488E+02</pdfrwt>
<totfact> 0.12323002E+06</totfact>
</mgrwt>
</event>
<event>
 5    1  0.1154861E-006  0.2000151E+02  0.7818608E-02  0.1745298E+00
         -4   -1    0    0    0  501 -0.00000000000E+00  0.00000000000E+00  0.25788442603E+01  0.29439493404E+01  0.14200000000E+01 0. -1.
          4   -1    0    0  501    0  0.00000000000E+00 -0.00000000000E+00 -0.35838914526E+02  0.35867034926E+02  0.14200000000E+01 0.  1.
       1023    2    1    2    0    0  0.00000000000E+00  0.00000000000E+00 -0.33260070265E+02  0.38810984266E+02  0.20001505585E+02 0.  0.
        -11    1    3    3    0    0  0.65414956973E+01 -0.75644945129E+01 -0.16536714867E+02  0.19325518933E+02  0.51100000000E-03 0.  1.
         11    1    3    3    0    0 -0.65414956973E+01  0.75644945129E+01 -0.16723355399E+02  0.19485465333E+02  0.51100000000E-03 0. -1.
<mgrwt>
<rscale>  0 0.20001506E+02</rscale>
<asrwt>0</asrwt>
<pdfrwt beam="2">  1        4 0.55439270E-02 0.20001506E+02</pdfrwt>
<pdfrwt beam="1">  1       -4 0.42699341E-03 0.20001506E+02</pdfrwt>
<totfact> 0.12016483E+06</totfact>
</mgrwt>
</event>
<event>
 5    1  0.1154861E-006  0.2000104E+02  0.7818608E-02  0.1745307E+00
         -4   -1    0    0    0  501 -0.00000000000E+00  0.00000000000E+00  0.46256105741E+00  0.14934398990E+01  0.14200000000E+01 0. -1.
          4   -1    0    0  501    0  0.00000000000E+00 -0.00000000000E+00 -0.10122160197E+03  0.10123156181E+03  0.14200000000E+01 0.  1.
       1023    2    1    2    0    0  0.00000000000E+00  0.00000000000E+00 -0.10075904092E+03  0.10272500171E+03  0.20001041207E+02 0.  0.
        -11    1    3    3    0    0  0.67969410931E+01 -0.73354009304E+01 -0.50700141058E+02  0.51676985386E+02  0.51100000000E-03 0.  1.
         11    1    3    3    0    0 -0.67969410931E+01  0.73354009304E+01 -0.50058899859E+02  0.51048016322E+02  0.51100000000E-03 0. -1.
<mgrwt>
<rscale>  0 0.20001041E+02</rscale>
<asrwt>0</asrwt>
<pdfrwt beam="2">  1        4 0.15652610E-01 0.20001041E+02</pdfrwt>
<pdfrwt beam="1">  1       -4 0.15122783E-03 0.20001041E+02</pdfrwt>
<totfact> 0.97233289E+05</totfact>
</mgrwt>
</event>
<event>
 5    1  0.1154861E-006  0.2000014E+02  0.7818608E-02  0.1745325E+00
          4   -1    0    0  501    0  0.00000000000E+00  0.00000000000E+00  0.57063449884E+01  0.58803718528E+01  0.14200000000E+01 0.  1.
         -4   -1    0    0    0  501 -0.00000000000E+00 -0.00000000000E+00 -0.17057414434E+02  0.17116418643E+02  0.14200000000E+01 0. -1.
       1023    2    1    2    0    0  0.00000000000E+00  0.00000000000E+00 -0.11351069445E+02  0.22996790496E+02  0.20000139889E+02 0.  0.
        -11    1    3    3    0    0 -0.54675441287E+01 -0.83729901861E+01 -0.56983921832E+01  0.11509677545E+02  0.51100000000E-03 0. -1.
         11    1    3    3    0    0  0.54675441287E+01  0.83729901861E+01 -0.56526772623E+01  0.11487112951E+02  0.51100000000E-03 0.  1.
<mgrwt>
<rscale>  0 0.20000140E+02</rscale>
<asrwt>0</asrwt>
<pdfrwt beam="1">  1        4 0.89582470E-03 0.20000140E+02</pdfrwt>
<pdfrwt beam="2">  1       -4 0.26421431E-02 0.20000140E+02</pdfrwt>
<totfact> 0.12838577E+06</totfact>
</mgrwt>
</event>
<event>
 4    1  0.1421066E-006  0.2030480E+02  0.7818608E-02  0.1739334E+00
          4   -1    0    0  501    0  0.00000000000E+00  0.00000000000E+00  0.57838714217E+02  0.57856142822E+02  0.14200000000E+01 0. -1.
         -4   -1    0    0    0  501 -0.00000000000E+00 -0.00000000000E+00 -0.14785836552E+01  0.20500267377E+01  0.14200000000E+01 0.  1.
        -11    1    1    2    0    0  0.67405688248E+01 -0.74764651112E+01  0.32070059354E+02  0.33612817583E+02  0.51100000000E-03 0. -1.
         11    1    1    2    0    0 -0.67405688248E+01  0.74764651112E+01  0.24290071207E+02  0.26293351976E+02  0.51100000000E-03 0.  1.
<mgrwt>
<rscale>  0 0.20304798E+02</rscale>
<asrwt>0</asrwt>
<pdfrwt beam="1">  1        4 0.89435624E-02 0.20304798E+02</pdfrwt>
<pdfrwt beam="2">  1       -4 0.27277220E-03 0.20304798E+02</pdfrwt>
<totfact> 0.10788080E+06</totfact>
</mgrwt>
</event>
<event>
 5    1  0.1154861E-006  0.2000192E+02  0.7818608E-02  0.1745290E+00
          4   -1    0    0  501    0  0.00000000000E+00  0.00000000000E+00  0.13017192188E+01  0.19263626150E+01  0.14200000000E+01 0.  1.
         -4   -1    0    0    0  501 -0.00000000000E+00 -0.00000000000E+00 -0.61333748468E+02  0.61350184198E+02  0.14200000000E+01 0. -1.
       1023    2    1    2    0    0  0.00000000000E+00  0.00000000000E+00 -0.60032029250E+02  0.63276546813E+02  0.20001920928E+02 0.  0.
        -11    1    3    3    0    0 -0.95963533536E+01  0.28137341425E+01 -0.29667848325E+02  0.31307959404E+02  0.51100000000E-03 0. -1.
         11    1    3    3    0    0  0.95963533536E+01 -0.28137341425E+01 -0.30364180924E+02  0.31968587410E+02  0.51100000000E-03 0.  1.
<mgrwt>
<rscale>  0 0.20001921E+02</rscale>
<asrwt>0</asrwt>
<pdfrwt beam="1">  1        4 0.24957832E-03 0.20001921E+02</pdfrwt>
<pdfrwt beam="2">  1       -4 0.94852733E-02 0.20001921E+02</pdfrwt>
<totfact> 0.10992702E+06</totfact>
</mgrwt>
</event>
<event>
 4    1  0.1566198E-006  0.2040038E+02  0.7818608E-02  0.1737481E+00
         -4   -1    0    0    0  501 -0.00000000000E+00  0.00000000000E+00  0.71349580274E+01  0.72748901059E+01  0.14200000000E+01 0. -1.
          4   -1    0    0  501    0  0.00000000000E+00 -0.00000000000E+00 -0.14265134504E+02  0.14335636100E+02  0.14200000000E+01 0.  1.
        -11    1    1    2    0    0  0.10105072403E+02  0.12095905786E+00 -0.20984993680E+01  0.10321376808E+02  0.51100000000E-03 0. -1.
         11    1    1    2    0    0 -0.10105072403E+02 -0.12095905786E+00 -0.50316771082E+01  0.11289149398E+02  0.51100000000E-03 0.  1.
<mgrwt>
<rscale>  0 0.20400378E+02</rscale>
<asrwt>0</asrwt>
<pdfrwt beam="2">  1        4 0.22108233E-02 0.20400378E+02</pdfrwt>
<pdfrwt beam="1">  1       -4 0.11138731E-02 0.20400378E+02</pdfrwt>
<totfact> 0.12404577E+06</totfact>
</mgrwt>
</event>
<event>
 5    1  0.1154861E-006  0.2000306E+02  0.7818608E-02  0.1745267E+00
         -4   -1    0    0    0  501 -0.00000000000E+00  0.00000000000E+00  0.27439220119E+02  0.27475938578E+02  0.14200000000E+01 0.  1.
          4   -1    0    0  501    0  0.00000000000E+00 -0.00000000000E+00 -0.34664997857E+01  0.37460673731E+01  0.14200000000E+01 0. -1.
       1023    2    1    2    0    0  0.00000000000E+00  0.00000000000E+00  0.23972720333E+02  0.31222005951E+02  0.20003058152E+02 0.  0.
        -11    1    3    3    0    0  0.98875430577E+01 -0.15050606070E+01  0.11918891058E+02  0.15559199191E+02  0.51100000000E-03 0. -1.
         11    1    3    3    0    0 -0.98875430577E+01  0.15050606070E+01  0.12053829275E+02  0.15662806760E+02  0.51100000000E-03 0.  1.
<mgrwt>
<rscale>  0 0.20003058E+02</rscale>
<asrwt>0</asrwt>
<pdfrwt beam="2">  1        4 0.55763735E-03 0.20003058E+02</pdfrwt>
<pdfrwt beam="1">  1       -4 0.42457482E-02 0.20003058E+02</pdfrwt>
<totfact> 0.12388541E+06</totfact>
</mgrwt>
</event>
<event>
 5    1  0.1154861E-006  0.2000079E+02  0.7818608E-02  0.1745312E+00
         -4   -1    0    0    0  501 -0.00000000000E+00  0.00000000000E+00  0.64599773111E+00  0.15600362395E+01  0.14200000000E+01 0.  1.
          4   -1    0    0  501    0  0.00000000000E+00 -0.00000000000E+00 -0.89745599867E+02  0.89756833141E+02  0.14200000000E+01 0. -1.
       1023    2    1    2    0    0  0.00000000000E+00  0.00000000000E+00 -0.89099602136E+02  0.91316869381E+02  0.20000788301E+02 0.  0.
        -11    1    3    3    0    0 -0.69965014132E+01 -0.71452696183E+01 -0.44347003195E+02  0.45460560957E+02  0.51100000000E-03 0. -1.
         11    1    3    3    0    0  0.69965014132E+01  0.71452696183E+01 -0.44752598941E+02  0.45856308423E+02  0.51100000000E-03 0.  1.
<mgrwt>
<rscale>  0 0.20000788E+02</rscale>
<asrwt>0</asrwt>
<pdfrwt beam="2">  1        4 0.13878184E-01 0.20000788E+02</pdfrwt>
<pdfrwt beam="1">  1       -4 0.17055909E-03 0.20000788E+02</pdfrwt>
<totfact> 0.10054987E+06</totfact>
</mgrwt>
</event>
<event>
 5    1  0.1154861E-006  0.2000115E+02  0.7818608E-02  0.1745305E+00
         -4   -1    0    0    0  501 -0.00000000000E+00  0.00000000000E+00  0.26220249512E+01  0.29818475556E+01  0.14200000000E+01 0. -1.
          4   -1    0    0  501    0  0.00000000000E+00 -0.00000000000E+00 -0.35318709127E+02  0.35347243378E+02  0.14200000000E+01 0.  1.
       1023    2    1    2    0    0  0.00000000000E+00  0.00000000000E+00 -0.32696684176E+02  0.38329090934E+02  0.20001151359E+02 0.  0.
        -11    1    3    3    0    0 -0.89475760748E+01 -0.44666868325E+01 -0.16284646035E+02  0.19110209460E+02  0.51100000000E-03 0. -1.
         11    1    3    3    0    0  0.89475760748E+01  0.44666868325E+01 -0.16412038141E+02  0.19218881473E+02  0.51100000000E-03 0.  1.
<mgrwt>
<rscale>  0 0.20001151E+02</rscale>
<asrwt>0</asrwt>
<pdfrwt beam="2">  1        4 0.54635208E-02 0.20001151E+02</pdfrwt>
<pdfrwt beam="1">  1       -4 0.43326208E-03 0.20001151E+02</pdfrwt>
<totfact> 0.12039699E+06</totfact>
</mgrwt>
</event>
<event>
 5    1  0.1158161E-006  0.2000181E+02  0.7818608E-02  0.1745292E+00
          4   -1    0    0  501    0  0.00000000000E+00  0.00000000000E+00  0.15622284485E+02  0.15686687749E+02  0.14200000000E+01 0.  1.
         -4   -1    0    0    0  501 -0.00000000000E+00 -0.00000000000E+00 -0.62448317752E+01  0.64042426484E+01  0.14200000000E+01 0. -1.
       1023    2    1    2    0    0  0.00000000000E+00  0.00000000000E+00  0.93774527100E+01  0.22090930397E+02  0.20001814580E+02 0.  0.
        -11    1    3    3    0    0 -0.99774238379E+01  0.68391643202E+00  0.47303192226E+01  0.11063121094E+02  0.51100000000E-03 0.  1.
         11    1    3    3    0    0  0.99774238379E+01 -0.68391643202E+00  0.46471334874E+01  0.11027809304E+02  0.51100000000E-03 0. -1.
<mgrwt>
<rscale>  0 0.20001815E+02</rscale>
<asrwt>0</asrwt>
<pdfrwt beam="1">  1        4 0.24206448E-02 0.20001815E+02</pdfrwt>
<pdfrwt beam="2">  1       -4 0.97795984E-03 0.20001815E+02</pdfrwt>
<totfact> 0.12888564E+06</totfact>
</mgrwt>
</event>
<event>
 4    1  0.1154861E-006  0.2001421E+02  0.7818608E-02  0.1745046E+00
         -4   -1    0    0    0  501 -0.00000000000E+00  0.00000000000E+00  0.65360456882E+00  0.15632015009E+01  0.14200000000E+01 0. -1.
          4   -1    0    0  501    0  0.00000000000E+00 -0.00000000000E+00 -0.89430615665E+02  0.89441888499E+02  0.14200000000E+01 0.  1.
        -11    1    1    2    0    0 -0.79854562275E+01 -0.60232539262E+01 -0.45790562935E+02  0.46870275796E+02  0.51100000000E-03 0. -1.
         11    1    1    2    0    0  0.79854562275E+01  0.60232539262E+01 -0.42986448161E+02  0.44134814203E+02  0.51100000000E-03 0.  1.
<mgrwt>
<rscale>  0 0.20014213E+02</rscale>
<asrwt>0</asrwt>
<pdfrwt beam="2">  1        4 0.13829387E-01 0.20014213E+02</pdfrwt>
<pdfrwt beam="1">  1       -4 0.17139076E-03 0.20014213E+02</pdfrwt>
<totfact> 0.10050922E+06</totfact>
</mgrwt>
</event>
<event>
 5    1  0.1159422E-006  0.2000191E+02  0.7818608E-02  0.1745290E+00
         -4   -1    0    0    0  501 -0.00000000000E+00  0.00000000000E+00  0.15374277176E+02  0.15439714981E+02  0.14200000000E+01 0. -1.
          4   -1    0    0  501    0  0.00000000000E+00 -0.00000000000E+00 -0.63477509413E+01  0.65046400372E+01  0.14200000000E+01 0.  1.
       1023    2    1    2    0    0  0.00000000000E+00  0.00000000000E+00  0.90265262347E+01  0.21944355018E+02  0.20001913441E+02 0.  0.
        -11    1    3    3    0    0 -0.55380305317E+01 -0.83265035506E+01  0.43632692472E+01  0.10910479473E+02  0.51100000000E-03 0. -1.
         11    1    3    3    0    0  0.55380305317E+01  0.83265035506E+01  0.46632569876E+01  0.11033875545E+02  0.51100000000E-03 0.  1.
<mgrwt>
<rscale>  0 0.20001913E+02</rscale>
<asrwt>0</asrwt>
<pdfrwt beam="2">  1        4 0.99367914E-03 0.20001913E+02</pdfrwt>
<pdfrwt beam="1">  1       -4 0.23823755E-02 0.20001913E+02</pdfrwt>
<totfact> 0.12896939E+06</totfact>
</mgrwt>
</event>
<event>
 5    1  0.1154861E-006  0.2000018E+02  0.7818608E-02  0.1745324E+00
          4   -1    0    0  501    0  0.00000000000E+00  0.00000000000E+00  0.97799196775E+00  0.17242007682E+01  0.14200000000E+01 0. -1.
         -4   -1    0    0    0  501 -0.00000000000E+00 -0.00000000000E+00 -0.73260309591E+02  0.73274070184E+02  0.14200000000E+01 0.  1.
       1023    2    1    2    0    0  0.00000000000E+00  0.00000000000E+00 -0.72282317623E+02  0.74998270953E+02  0.20000180121E+02 0.  0.
        -11    1    3    3    0    0 -0.65826777865E+01  0.75278598333E+01 -0.36285441253E+02  0.37638192939E+02  0.51100000000E-03 0. -1.
         11    1    3    3    0    0  0.65826777865E+01 -0.75278598333E+01 -0.35996876370E+02  0.37360078014E+02  0.51100000000E-03 0.  1.
<mgrwt>
<rscale>  0 0.20000180E+02</rscale>
<asrwt>0</asrwt>
<pdfrwt beam="1">  1        4 0.20891954E-03 0.20000180E+02</pdfrwt>
<pdfrwt beam="2">  1       -4 0.11329273E-01 0.20000180E+02</pdfrwt>
<totfact> 0.10577581E+06</totfact>
</mgrwt>
</event>
<event>
 5    1  0.1154861E-006  0.2000075E+02  0.7818608E-02  0.1745313E+00
          4   -1    0    0  501    0  0.00000000000E+00  0.00000000000E+00  0.43562573064E+02  0.43585710639E+02  0.14200000000E+01 0.  1.
         -4   -1    0    0    0  501 -0.00000000000E+00 -0.00000000000E+00 -0.20500325752E+01  0.24937990214E+01  0.14200000000E+01 0. -1.
       1023    2    1    2    0    0  0.00000000000E+00  0.00000000000E+00  0.41512540489E+02  0.46079509661E+02  0.20000754805E+02 0.  0.
        -11    1    3    3    0    0 -0.83653353654E+01 -0.54798133839E+01  0.20799827153E+02  0.23078994787E+02  0.51100000000E-03 0.  1.
         11    1    3    3    0    0  0.83653353654E+01  0.54798133839E+01  0.20712713336E+02  0.23000514874E+02  0.51100000000E-03 0. -1.
<mgrwt>
<rscale>  0 0.20000755E+02</rscale>
<asrwt>0</asrwt>
<pdfrwt beam="1">  1        4 0.67378491E-02 0.20000755E+02</pdfrwt>
<pdfrwt beam="2">  1       -4 0.35130537E-03 0.20000755E+02</pdfrwt>
<totfact> 0.11687446E+06</totfact>
</mgrwt>
</event>
<event>
 5    1  0.1217251E-006  0.2000087E+02  0.7818608E-02  0.1745311E+00
         -4   -1    0    0    0  501 -0.00000000000E+00  0.00000000000E+00  0.13008471715E+02  0.13085745541E+02  0.14200000000E+01 0. -1.
          4   -1    0    0  501    0  0.00000000000E+00 -0.00000000000E+00 -0.75212966260E+01  0.76541689905E+01  0.14200000000E+01 0.  1.
       1023    2    1    2    0    0  0.00000000000E+00  0.00000000000E+00  0.54871750895E+01  0.20739914532E+02  0.20000874089E+02 0.  0.
        -11    1    3    3    0    0  0.50944684340E+00 -0.99871997410E+01  0.26699270754E+01  0.10350468859E+02  0.51100000000E-03 0.  1.
         11    1    3    3    0    0 -0.50944684340E+00  0.99871997410E+01  0.28172480141E+01  0.10389445673E+02  0.51100000000E-03 0. -1.
<mgrwt>
<rscale>  0 0.20000874E+02</rscale>
<asrwt>0</asrwt>
<pdfrwt beam="2">  1        4 0.11732877E-02 0.20000874E+02</pdfrwt>
<pdfrwt beam="1">  1       -4 0.20174684E-02 0.20000874E+02</pdfrwt>
<totfact> 0.12968982E+06</totfact>
</mgrwt>
</event>
<event>
 5    1  0.1154861E-006  0.2000406E+02  0.7818608E-02  0.1745247E+00
          4   -1    0    0  501    0  0.00000000000E+00  0.00000000000E+00  0.12680996053E+01  0.19038058223E+01  0.14200000000E+01 0.  1.
         -4   -1    0    0    0  501 -0.00000000000E+00 -0.00000000000E+00 -0.62433796101E+02  0.62449942319E+02  0.14200000000E+01 0. -1.
       1023    2    1    2    0    0  0.00000000000E+00  0.00000000000E+00 -0.61165696496E+02  0.64353748141E+02  0.20004061387E+02 0.  0.
        -11    1    3    3    0    0 -0.53048986625E+01 -0.84780281481E+01 -0.30108877130E+02  0.31726383239E+02  0.51100000000E-03 0.  1.
         11    1    3    3    0    0  0.53048986625E+01  0.84780281481E+01 -0.31056819366E+02  0.32627364902E+02  0.51100000000E-03 0. -1.
<mgrwt>
<rscale>  0 0.20004061E+02</rscale>
<asrwt>0</asrwt>
<pdfrwt beam="1">  1        4 0.24523479E-03 0.20004061E+02</pdfrwt>
<pdfrwt beam="2">  1       -4 0.96553400E-02 0.20004061E+02</pdfrwt>
<totfact> 0.10950334E+06</totfact>
</mgrwt>
</event>
<event>
 5    1  0.1154861E-006  0.2000728E+02  0.7818608E-02  0.1745183E+00
         -4   -1    0    0    0  501 -0.00000000000E+00  0.00000000000E+00  0.65808995216E+00  0.15650822295E+01  0.14200000000E+01 0. -1.
          4   -1    0    0  501    0  0.00000000000E+00 -0.00000000000E+00 -0.89112133160E+02  0.89123446278E+02  0.14200000000E+01 0.  1.
       1023    2    1    2    0    0  0.00000000000E+00  0.00000000000E+00 -0.88454043208E+02  0.90688528507E+02  0.20007284746E+02 0.  0.
        -11    1    3    3    0    0 -0.90451348862E+01  0.42662912367E+01 -0.45310671976E+02  0.46401214436E+02  0.51100000000E-03 0. -1.
         11    1    3    3    0    0  0.90451348862E+01 -0.42662912367E+01 -0.43143371233E+02  0.44287314071E+02  0.51100000000E-03 0.  1.
<mgrwt>
<rscale>  0 0.20007285E+02</rscale>
<asrwt>0</asrwt>
<pdfrwt beam="2">  1        4 0.13780192E-01 0.20007285E+02</pdfrwt>
<pdfrwt beam="1">  1       -4 0.17188356E-03 0.20007285E+02</pdfrwt>
<totfact> 0.10067456E+06</totfact>
</mgrwt>
</event>
<event>
 5    1  0.1154861E-006  0.2000240E+02  0.7818608E-02  0.1745280E+00
          4   -1    0    0  501    0  0.00000000000E+00  0.00000000000E+00  0.86744154311E+01  0.87898738939E+01  0.14200000000E+01 0. -1.
         -4   -1    0    0    0  501 -0.00000000000E+00 -0.00000000000E+00 -0.11294482045E+02  0.11383396886E+02  0.14200000000E+01 0.  1.
       1023    2    1    2    0    0  0.00000000000E+00  0.00000000000E+00 -0.26200666135E+01  0.20173270780E+02  0.20002402478E+02 0.  0.
        -11    1    3    3    0    0  0.78911748756E+01  0.61442021914E+01 -0.13569546395E+01  0.10092729445E+02  0.51100000000E-03 0. -1.
         11    1    3    3    0    0 -0.78911748756E+01 -0.61442021914E+01 -0.12631119739E+01  0.10080541335E+02  0.51100000000E-03 0.  1.
<mgrwt>
<rscale>  0 0.20002402E+02</rscale>
<asrwt>0</asrwt>
<pdfrwt beam="1">  1        4 0.13502465E-02 0.20002402E+02</pdfrwt>
<pdfrwt beam="2">  1       -4 0.17533337E-02 0.20002402E+02</pdfrwt>
<totfact> 0.13000550E+06</totfact>
</mgrwt>
</event>
<event>
 4    1  0.1255605E-006  0.2362387E+02  0.7818608E-02  0.1681592E+00
          4   -1    0    0  501    0  0.00000000000E+00  0.00000000000E+00  0.23155630868E+02  0.23199130175E+02  0.14200000000E+01 0.  1.
         -4   -1    0    0    0  501 -0.00000000000E+00 -0.00000000000E+00 -0.58918109714E+01  0.60605145427E+01  0.14200000000E+01 0. -1.
        -11    1    1    2    0    0  0.97443527890E+01  0.64521274649E+01  0.65084079696E+01  0.13376910505E+02  0.51100000000E-03 0. -1.
         11    1    1    2    0    0 -0.97443527890E+01 -0.64521274649E+01  0.10755411927E+02  0.15882734213E+02  0.51100000000E-03 0.  1.
<mgrwt>
<rscale>  0 0.23623872E+02</rscale>
<asrwt>0</asrwt>
<pdfrwt beam="1">  1        4 0.35787280E-02 0.23623872E+02</pdfrwt>
<pdfrwt beam="2">  1       -4 0.92275576E-03 0.23623872E+02</pdfrwt>
<totfact> 0.88260642E+05</totfact>
</mgrwt>
</event>
<event>
 5    1  0.1154861E-006  0.2000160E+02  0.7818608E-02  0.1745296E+00
          4   -1    0    0  501    0  0.00000000000E+00  0.00000000000E+00  0.48370438229E+02  0.48391277049E+02  0.14200000000E+01 0. -1.
         -4   -1    0    0    0  501 -0.00000000000E+00 -0.00000000000E+00 -0.18000344975E+01  0.22927111009E+01  0.14200000000E+01 0.  1.
       1023    2    1    2    0    0  0.00000000000E+00  0.00000000000E+00  0.46570403731E+02  0.50683988150E+02  0.20001603713E+02 0.  0.
        -11    1    3    3    0    0  0.11315030918E+01  0.99363622902E+01  0.23454101897E+02  0.25497185940E+02  0.51100000000E-03 0. -1.
         11    1    3    3    0    0 -0.11315030918E+01 -0.99363622902E+01  0.23116301835E+02  0.25186802210E+02  0.51100000000E-03 0.  1.
<mgrwt>
<rscale>  0 0.20001604E+02</rscale>
<asrwt>0</asrwt>
<pdfrwt beam="1">  1        4 0.74811069E-02 0.20001604E+02</pdfrwt>
<pdfrwt beam="2">  1       -4 0.31642958E-03 0.20001604E+02</pdfrwt>
<totfact> 0.11489688E+06</totfact>
</mgrwt>
</event>
<event>
 5    1  0.1182611E-006  0.2000164E+02  0.7818608E-02  0.1745295E+00
         -4   -1    0    0    0  501 -0.00000000000E+00  0.00000000000E+00  0.22826962272E+02  0.22871086694E+02  0.14200000000E+01 0.  1.
          4   -1    0    0  501    0  0.00000000000E+00 -0.00000000000E+00 -0.42166974971E+01  0.44493749878E+01  0.14200000000E+01 0. -1.
       1023    2    1    2    0    0  0.00000000000E+00  0.00000000000E+00  0.18610264775E+02  0.27320461682E+02  0.20001641721E+02 0.  0.
        -11    1    3    3    0    0  0.22527136139E+01 -0.97437902619E+01  0.92835214225E+01  0.13645509795E+02  0.51100000000E-03 0. -1.
         11    1    3    3    0    0 -0.22527136139E+01  0.97437902619E+01  0.93267433523E+01  0.13674951887E+02  0.51100000000E-03 0.  1.
<mgrwt>
<rscale>  0 0.20001642E+02</rscale>
<asrwt>0</asrwt>
<pdfrwt beam="2">  1        4 0.67001514E-03 0.20001642E+02</pdfrwt>
<pdfrwt beam="1">  1       -4 0.35331328E-02 0.20001642E+02</pdfrwt>
<totfact> 0.12596028E+06</totfact>
</mgrwt>
</event>
<event>
 5    1  0.1154861E-006  0.2000029E+02  0.7818608E-02  0.1745322E+00
         -4   -1    0    0    0  501 -0.00000000000E+00  0.00000000000E+00  0.10246091709E+02  0.10344022202E+02  0.14200000000E+01 0.  1.
          4   -1    0    0  501    0  0.00000000000E+00 -0.00000000000E+00 -0.95630744181E+01  0.96679259578E+01  0.14200000000E+01 0. -1.
       1023    2    1    2    0    0  0.00000000000E+00  0.00000000000E+00  0.68301729104E+00  0.20011948160E+02  0.20000288911E+02 0.  0.
        -11    1    3    3    0    0 -0.81009780954E+01 -0.58631917018E+01  0.33642276652E+00  0.10005800496E+02  0.51100000000E-03 0. -1.
         11    1    3    3    0    0  0.81009780954E+01  0.58631917018E+01  0.34659452452E+00  0.10006147663E+02  0.51100000000E-03 0.  1.
<mgrwt>
<rscale>  0 0.20000289E+02</rscale>
<asrwt>0</asrwt>
<pdfrwt beam="2">  1        4 0.14868408E-02 0.20000289E+02</pdfrwt>
<pdfrwt beam="1">  1       -4 0.15919204E-02 0.20000289E+02</pdfrwt>
<totfact> 0.13012952E+06</totfact>
</mgrwt>
</event>
<event>
 5    1  0.1154861E-006  0.2000024E+02  0.7818608E-02  0.1745323E+00
          4   -1    0    0  501    0  0.00000000000E+00  0.00000000000E+00  0.42134842520E+02  0.42158763670E+02  0.14200000000E+01 0.  1.
         -4   -1    0    0    0  501 -0.00000000000E+00 -0.00000000000E+00 -0.21341084175E+01  0.25633608286E+01  0.14200000000E+01 0. -1.
       1023    2    1    2    0    0  0.00000000000E+00  0.00000000000E+00  0.40000734102E+02  0.44722124498E+02  0.20000242272E+02 0.  0.
        -11    1    3    3    0    0  0.75811856138E+01 -0.65212456226E+01  0.19916620297E+02  0.22286156782E+02  0.51100000000E-03 0. -1.
         11    1    3    3    0    0 -0.75811856138E+01  0.65212456226E+01  0.20084113805E+02  0.22435967717E+02  0.51100000000E-03 0.  1.
<mgrwt>
<rscale>  0 0.20000242E+02</rscale>
<asrwt>0</asrwt>
<pdfrwt beam="1">  1        4 0.65171428E-02 0.20000242E+02</pdfrwt>
<pdfrwt beam="2">  1       -4 0.36318388E-03 0.20000242E+02</pdfrwt>
<totfact> 0.11747825E+06</totfact>
</mgrwt>
</event>
<event>
 4    1  0.1154861E-006  0.2002266E+02  0.7818608E-02  0.1744878E+00
         -4   -1    0    0    0  501 -0.00000000000E+00  0.00000000000E+00  0.97034974463E+02  0.97045363975E+02  0.14200000000E+01 0. -1.
          4   -1    0    0  501    0  0.00000000000E+00 -0.00000000000E+00 -0.52937645914E+00  0.15154667385E+01  0.14200000000E+01 0.  1.
        -11    1    1    2    0    0 -0.75087079184E+00  0.99830705423E+01  0.48424842591E+02  0.49448871419E+02  0.51100000000E-03 0. -1.
         11    1    1    2    0    0  0.75087079184E+00 -0.99830705423E+01  0.48080755413E+02  0.49111959295E+02  0.51100000000E-03 0.  1.
<mgrwt>
<rscale>  0 0.20022660E+02</rscale>
<asrwt>0</asrwt>
<pdfrwt beam="2">  1        4 0.15809483E-03 0.20022660E+02</pdfrwt>
<pdfrwt beam="1">  1       -4 0.15005110E-01 0.20022660E+02</pdfrwt>
<totfact> 0.98202050E+05</totfact>
</mgrwt>
</event>
<event>
 5    1  0.1183345E-006  0.2000083E+02  0.7818608E-02  0.1745311E+00
          4   -1    0    0  501    0  0.00000000000E+00  0.00000000000E+00  0.32031054722E+01  0.35037529402E+01  0.14200000000E+01 0. -1.
         -4   -1    0    0    0  501 -0.00000000000E+00 -0.00000000000E+00 -0.29504219062E+02  0.29538370681E+02  0.14200000000E+01 0.  1.
       1023    2    1    2    0    0  0.00000000000E+00  0.00000000000E+00 -0.26301113590E+02  0.33042123621E+02  0.20000833915E+02 0.  0.
        -11    1    3    3    0    0 -0.20447497867E+01  0.97890647542E+01 -0.13215568460E+02  0.16572810276E+02  0.51100000000E-03 0.  1.
         11    1    3    3    0    0  0.20447497867E+01 -0.97890647542E+01 -0.13085545130E+02  0.16469313345E+02  0.51100000000E-03 0. -1.
<mgrwt>
<rscale>  0 0.20000834E+02</rscale>
<asrwt>0</asrwt>
<pdfrwt beam="1">  1        4 0.51853925E-03 0.20000834E+02</pdfrwt>
<pdfrwt beam="2">  1       -4 0.45648642E-02 0.20000834E+02</pdfrwt>
<totfact> 0.12298535E+06</totfact>
</mgrwt>
</event>
<event>
 5    1  0.1200576E-006  0.2000214E+02  0.7818608E-02  0.1745286E+00
         -4   -1    0    0    0  501 -0.00000000000E+00  0.00000000000E+00  0.13238826653E+02  0.13314763653E+02  0.14200000000E+01 0. -1.
          4   -1    0    0  501    0  0.00000000000E+00 -0.00000000000E+00 -0.73898209159E+01  0.75250151607E+01  0.14200000000E+01 0.  1.
       1023    2    1    2    0    0  0.00000000000E+00  0.00000000000E+00  0.58490057370E+01  0.20839778814E+02  0.20002137709E+02 0.  0.
        -11    1    3    3    0    0 -0.28201749936E+01 -0.95943233440E+01  0.27888563945E+01  0.10381818129E+02  0.51100000000E-03 0. -1.
         11    1    3    3    0    0  0.28201749936E+01  0.95943233440E+01  0.30601493425E+01  0.10457960685E+02  0.51100000000E-03 0.  1.
<mgrwt>
<rscale>  0 0.20002138E+02</rscale>
<asrwt>0</asrwt>
<pdfrwt beam="2">  1        4 0.11531364E-02 0.20002138E+02</pdfrwt>
<pdfrwt beam="1">  1       -4 0.20529834E-02 0.20002138E+02</pdfrwt>
<totfact> 0.12961394E+06</totfact>
</mgrwt>
</event>
<event>
 5    1  0.1154861E-006  0.2000058E+02  0.7818608E-02  0.1745317E+00
         -4   -1    0    0    0  501 -0.00000000000E+00  0.00000000000E+00  0.35863949619E+02  0.35892050405E+02  0.14200000000E+01 0.  1.
          4   -1    0    0  501    0  0.00000000000E+00 -0.00000000000E+00 -0.25765163413E+01  0.29419103415E+01  0.14200000000E+01 0. -1.
       1023    2    1    2    0    0  0.00000000000E+00  0.00000000000E+00  0.33287433278E+02  0.38833960746E+02  0.20000582318E+02 0.  0.
        -11    1    3    3    0    0  0.10068106448E+01  0.99494620878E+01  0.16680530539E+02  0.19448536264E+02  0.51100000000E-03 0.  1.
         11    1    3    3    0    0 -0.10068106448E+01 -0.99494620878E+01  0.16606902739E+02  0.19385424482E+02  0.51100000000E-03 0. -1.
<mgrwt>
<rscale>  0 0.20000582E+02</rscale>
<asrwt>0</asrwt>
<pdfrwt beam="2">  1        4 0.42665599E-03 0.20000582E+02</pdfrwt>
<pdfrwt beam="1">  1       -4 0.55477992E-02 0.20000582E+02</pdfrwt>
<totfact> 0.12016523E+06</totfact>
</mgrwt>
</event>
<event>
 5    1  0.1154861E-006  0.2000011E+02  0.7818608E-02  0.1745326E+00
         -4   -1    0    0    0  501 -0.00000000000E+00  0.00000000000E+00  0.19306453940E+01  0.23966208789E+01  0.14200000000E+01 0. -1.
          4   -1    0    0  501    0  0.00000000000E+00 -0.00000000000E+00 -0.45740889780E+02  0.45762926020E+02  0.14200000000E+01 0.  1.
       1023    2    1    2    0    0  0.00000000000E+00  0.00000000000E+00 -0.43810244386E+02  0.48159546899E+02  0.20000111107E+02 0.  0.
        -11    1    3    3    0    0 -0.94043269813E+01 -0.33998779277E+01 -0.21847385323E+02  0.24027250812E+02  0.51100000000E-03 0. -1.
         11    1    3    3    0    0  0.94043269813E+01  0.33998779277E+01 -0.21962859064E+02  0.24132296086E+02  0.51100000000E-03 0.  1.
<mgrwt>
<rscale>  0 0.20000111E+02</rscale>
<asrwt>0</asrwt>
<pdfrwt beam="2">  1        4 0.70745986E-02 0.20000111E+02</pdfrwt>
<pdfrwt beam="1">  1       -4 0.33456177E-03 0.20000111E+02</pdfrwt>
<totfact> 0.11598192E+06</totfact>
</mgrwt>
</event>
<event>
 5    1  0.1159609E-006  0.2000054E+02  0.7818608E-02  0.1745317E+00
         -4   -1    0    0    0  501 -0.00000000000E+00  0.00000000000E+00  0.12038482894E+02  0.12121941692E+02  0.14200000000E+01 0.  1.
          4   -1    0    0  501    0  0.00000000000E+00 -0.00000000000E+00 -0.81332574129E+01  0.82562870677E+01  0.14200000000E+01 0. -1.
       1023    2    1    2    0    0  0.00000000000E+00  0.00000000000E+00  0.39052254811E+01  0.20378228760E+02  0.20000535526E+02 0.  0.
        -11    1    3    3    0    0  0.54295568530E+01  0.83979206301E+01  0.19383286975E+01  0.10186377027E+02  0.51100000000E-03 0. -1.
         11    1    3    3    0    0 -0.54295568530E+01 -0.83979206301E+01  0.19668967836E+01  0.10191851733E+02  0.51100000000E-03 0.  1.
<mgrwt>
<rscale>  0 0.20000536E+02</rscale>
<asrwt>0</asrwt>
<pdfrwt beam="2">  1        4 0.12671541E-02 0.20000536E+02</pdfrwt>
<pdfrwt beam="1">  1       -4 0.18679580E-02 0.20000536E+02</pdfrwt>
<totfact> 0.12990831E+06</totfact>
</mgrwt>
</event>
<event>
 5    1  0.1154861E-006  0.2000008E+02  0.7818608E-02  0.1745327E+00
         -4   -1    0    0    0  501 -0.00000000000E+00  0.00000000000E+00  0.41594619360E+01  0.43951704855E+01  0.14200000000E+01 0. -1.
          4   -1    0    0  501    0  0.00000000000E+00 -0.00000000000E+00 -0.23121236539E+02  0.23164800433E+02  0.14200000000E+01 0.  1.
       1023    2    1    2    0    0  0.00000000000E+00  0.00000000000E+00 -0.18961774603E+02  0.27559970919E+02  0.20000077523E+02 0.  0.
        -11    1    3    3    0    0 -0.72312990554E+01  0.69071579007E+01 -0.94587244149E+01  0.13764736979E+02  0.51100000000E-03 0.  1.
         11    1    3    3    0    0  0.72312990554E+01 -0.69071579007E+01 -0.95030501886E+01  0.13795233939E+02  0.51100000000E-03 0. -1.
<mgrwt>
<rscale>  0 0.20000078E+02</rscale>
<asrwt>0</asrwt>
<pdfrwt beam="2">  1        4 0.35785957E-02 0.20000078E+02</pdfrwt>
<pdfrwt beam="1">  1       -4 0.66139973E-03 0.20000078E+02</pdfrwt>
<totfact> 0.12585102E+06</totfact>
</mgrwt>
</event>
<event>
 5    1  0.1154861E-006  0.2000771E+02  0.7818608E-02  0.1745175E+00
         -4   -1    0    0    0  501 -0.00000000000E+00  0.00000000000E+00  0.14408715686E+02  0.14478518147E+02  0.14200000000E+01 0. -1.
          4   -1    0    0  501    0  0.00000000000E+00 -0.00000000000E+00 -0.67853387982E+01  0.69323316861E+01  0.14200000000E+01 0.  1.
       1023    2    1    2    0    0  0.00000000000E+00  0.00000000000E+00  0.76233768878E+01  0.21410849833E+02  0.20007713897E+02 0.  0.
        -11    1    3    3    0    0  0.83566465433E+01 -0.54967802746E+01  0.36293930193E+01  0.10640518257E+02  0.51100000000E-03 0. -1.
         11    1    3    3    0    0 -0.83566465433E+01  0.54967802746E+01  0.39939838684E+01  0.10770331575E+02  0.51100000000E-03 0.  1.
<mgrwt>
<rscale>  0 0.20007714E+02</rscale>
<asrwt>0</asrwt>
<pdfrwt beam="2">  1        4 0.10605749E-02 0.20007714E+02</pdfrwt>
<pdfrwt beam="1">  1       -4 0.22334020E-02 0.20007714E+02</pdfrwt>
<totfact> 0.12920418E+06</totfact>
</mgrwt>
</event>
<event>
 5    1  0.1154861E-006  0.2000040E+02  0.7818608E-02  0.1745320E+00
          4   -1    0    0  501    0  0.00000000000E+00  0.00000000000E+00  0.83185303828E+00  0.16457154910E+01  0.14200000000E+01 0.  1.
         -4   -1    0    0    0  501 -0.00000000000E+00 -0.00000000000E+00 -0.79905280047E+02  0.79917896490E+02  0.14200000000E+01 0. -1.
       1023    2    1    2    0    0  0.00000000000E+00  0.00000000000E+00 -0.79073427009E+02  0.81563611981E+02  0.20000398508E+02 0.  0.
        -11    1    3    3    0    0  0.62486479733E+01 -0.78075429442E+01 -0.39432220068E+02  0.40680502800E+02  0.51100000000E-03 0. -1.
         11    1    3    3    0    0 -0.62486479733E+01  0.78075429442E+01 -0.39641206941E+02  0.40883109181E+02  0.51100000000E-03 0.  1.
<mgrwt>
<rscale>  0 0.20000399E+02</rscale>
<asrwt>0</asrwt>
<pdfrwt beam="1">  1        4 0.19155275E-03 0.20000399E+02</pdfrwt>
<pdfrwt beam="2">  1       -4 0.12356691E-01 0.20000399E+02</pdfrwt>
<totfact> 0.10359935E+06</totfact>
</mgrwt>
</event>
<event>
 5    1  0.1154861E-006  0.2000211E+02  0.7818608E-02  0.1745286E+00
          4   -1    0    0  501    0  0.00000000000E+00  0.00000000000E+00  0.11481245547E+01  0.18260859763E+01  0.14200000000E+01 0. -1.
         -4   -1    0    0    0  501 -0.00000000000E+00 -0.00000000000E+00 -0.66571691295E+02  0.66586834148E+02  0.14200000000E+01 0.  1.
       1023    2    1    2    0    0  0.00000000000E+00  0.00000000000E+00 -0.65423566740E+02  0.68412920124E+02  0.20002113762E+02 0.  0.
        -11    1    3    3    0    0  0.15963615943E+01  0.98727992519E+01 -0.32795776531E+02  0.34286783079E+02  0.51100000000E-03 0.  1.
         11    1    3    3    0    0 -0.15963615943E+01 -0.98727992519E+01 -0.32627790209E+02  0.34126137045E+02  0.51100000000E-03 0. -1.
<mgrwt>
<rscale>  0 0.20002114E+02</rscale>
<asrwt>0</asrwt>
<pdfrwt beam="1">  1        4 0.22995031E-03 0.20002114E+02</pdfrwt>
<pdfrwt beam="2">  1       -4 0.10295112E-01 0.20002114E+02</pdfrwt>
<totfact> 0.10804898E+06</totfact>
</mgrwt>
</event>
<event>
 4    1  0.1154861E-006  0.2862704E+02  0.7818608E-02  0.1613780E+00
         -4   -1    0    0    0  501 -0.00000000000E+00  0.00000000000E+00  0.10003203872E+01  0.17369631191E+01  0.14200000000E+01 0.  1.
          4   -1    0    0  501    0  0.00000000000E+00 -0.00000000000E+00 -0.14895257035E+03  0.14895933880E+03  0.14200000000E+01 0. -1.
        -11    1    1    2    0    0  0.81004895350E+01 -0.11757882639E+02 -0.68682994736E+02  0.70151404128E+02  0.51100000000E-03 0. -1.
         11    1    1    2    0    0 -0.81004895350E+01  0.11757882639E+02 -0.79269255230E+02  0.80544897789E+02  0.51100000000E-03 0.  1.
<mgrwt>
<rscale>  0 0.28627035E+02</rscale>
<asrwt>0</asrwt>
<pdfrwt beam="2">  1        4 0.22972953E-01 0.28627035E+02</pdfrwt>
<pdfrwt beam="1">  1       -4 0.21108104E-03 0.28627035E+02</pdfrwt>
<totfact> 0.40437400E+05</totfact>
</mgrwt>
</event>
<event>
 5    1  0.1193276E-006  0.2000106E+02  0.7818608E-02  0.1745307E+00
          4   -1    0    0  501    0  0.00000000000E+00  0.00000000000E+00  0.29395527731E+01  0.32645628354E+01  0.14200000000E+01 0.  1.
         -4   -1    0    0    0  501 -0.00000000000E+00 -0.00000000000E+00 -0.31898434094E+02  0.31930025018E+02  0.14200000000E+01 0. -1.
       1023    2    1    2    0    0  0.00000000000E+00  0.00000000000E+00 -0.28958881321E+02  0.35194587854E+02  0.20001055143E+02 0.  0.
        -11    1    3    3    0    0 -0.48214959070E+01 -0.87614280698E+01 -0.14537982355E+02  0.17645463321E+02  0.51100000000E-03 0.  1.
         11    1    3    3    0    0  0.48214959070E+01  0.87614280698E+01 -0.14420898966E+02  0.17549124532E+02  0.51100000000E-03 0. -1.
<mgrwt>
<rscale>  0 0.20001055E+02</rscale>
<asrwt>0</asrwt>
<pdfrwt beam="1">  1        4 0.47966976E-03 0.20001055E+02</pdfrwt>
<pdfrwt beam="2">  1       -4 0.49348820E-02 0.20001055E+02</pdfrwt>
<totfact> 0.12191109E+06</totfact>
</mgrwt>
</event>
<event>
 4    1  0.1154861E-006  0.2017401E+02  0.7818608E-02  0.1741890E+00
         -4   -1    0    0    0  501 -0.00000000000E+00  0.00000000000E+00  0.15213821828E+02  0.15279946813E+02  0.14200000000E+01 0.  1.
          4   -1    0    0  501    0  0.00000000000E+00 -0.00000000000E+00 -0.65307523400E+01  0.66833469255E+01  0.14200000000E+01 0. -1.
        -11    1    1    2    0    0  0.41644695784E+01 -0.91627143734E+01  0.36116215575E+01  0.10693079636E+02  0.51100000000E-03 0.  1.
         11    1    1    2    0    0 -0.41644695784E+01  0.91627143734E+01  0.50714479307E+01  0.11270214103E+02  0.51100000000E-03 0. -1.
<mgrwt>
<rscale>  0 0.20174007E+02</rscale>
<asrwt>0</asrwt>
<pdfrwt beam="2">  1        4 0.10215557E-02 0.20174007E+02</pdfrwt>
<pdfrwt beam="1">  1       -4 0.23574125E-02 0.20174007E+02</pdfrwt>
<totfact> 0.12672220E+06</totfact>
</mgrwt>
</event>
<event>
 5    1  0.1210846E-006  0.2000136E+02  0.7818608E-02  0.1745301E+00
         -4   -1    0    0    0  501 -0.00000000000E+00  0.00000000000E+00  0.40359690188E+01  0.42784864054E+01  0.14200000000E+01 0.  1.
          4   -1    0    0  501    0  0.00000000000E+00 -0.00000000000E+00 -0.23793459870E+02  0.23835795195E+02  0.14200000000E+01 0. -1.
       1023    2    1    2    0    0  0.00000000000E+00  0.00000000000E+00 -0.19757490851E+02  0.28114281600E+02  0.20001359583E+02 0.  0.
        -11    1    3    3    0    0 -0.59756651555E+01  0.80184131286E+01 -0.97376722909E+01  0.13958000754E+02  0.51100000000E-03 0.  1.
         11    1    3    3    0    0  0.59756651555E+01 -0.80184131286E+01 -0.10019818560E+02  0.14156280846E+02  0.51100000000E-03 0. -1.
<mgrwt>
<rscale>  0 0.20001360E+02</rscale>
<asrwt>0</asrwt>
<pdfrwt beam="2">  1        4 0.36824440E-02 0.20001360E+02</pdfrwt>
<pdfrwt beam="1">  1       -4 0.64283007E-03 0.20001360E+02</pdfrwt>
<totfact> 0.12553694E+06</totfact>
</mgrwt>
</event>
<event>
 5    1  0.1154861E-006  0.2000027E+02  0.7818608E-02  0.1745323E+00
          4   -1    0    0  501    0  0.00000000000E+00  0.00000000000E+00  0.38553881606E+02  0.38580023158E+02  0.14200000000E+01 0.  1.
         -4   -1    0    0    0  501 -0.00000000000E+00 -0.00000000000E+00 -0.23703607455E+01  0.27631521970E+01  0.14200000000E+01 0. -1.
       1023    2    1    2    0    0  0.00000000000E+00  0.00000000000E+00  0.36183520861E+02  0.41343175355E+02  0.20000274163E+02 0.  0.
        -11    1    3    3    0    0 -0.92060617148E+01 -0.39050761454E+01  0.18173127427E+02  0.20742800022E+02  0.51100000000E-03 0.  1.
         11    1    3    3    0    0  0.92060617148E+01  0.39050761454E+01  0.18010393433E+02  0.20600375333E+02  0.51100000000E-03 0. -1.
<mgrwt>
<rscale>  0 0.20000274E+02</rscale>
<asrwt>0</asrwt>
<pdfrwt beam="1">  1        4 0.59635917E-02 0.20000274E+02</pdfrwt>
<pdfrwt beam="2">  1       -4 0.39689652E-03 0.20000274E+02</pdfrwt>
<totfact> 0.11900217E+06</totfact>
</mgrwt>
</event>
<event>
 5    1  0.1154861E-006  0.2000045E+02  0.7818608E-02  0.1745319E+00
          4   -1    0    0  501    0  0.00000000000E+00  0.00000000000E+00  0.29010540567E+02  0.29045272661E+02  0.14200000000E+01 0. -1.
         -4   -1    0    0    0  501 -0.00000000000E+00 -0.00000000000E+00 -0.32624770948E+01  0.35581114084E+01  0.14200000000E+01 0.  1.
       1023    2    1    2    0    0  0.00000000000E+00  0.00000000000E+00  0.25748063472E+02  0.32603384070E+02  0.20000447001E+02 0.  0.
        -11    1    3    3    0    0 -0.13509710062E+00  0.99991266775E+01  0.12775085767E+02  0.16223550849E+02  0.51100000000E-03 0. -1.
         11    1    3    3    0    0  0.13509710062E+00 -0.99991266775E+01  0.12972977705E+02  0.16379833221E+02  0.51100000000E-03 0.  1.
<mgrwt>
<rscale>  0 0.20000447E+02</rscale>
<asrwt>0</asrwt>
<pdfrwt beam="1">  1        4 0.44885730E-02 0.20000447E+02</pdfrwt>
<pdfrwt beam="2">  1       -4 0.52733235E-03 0.20000447E+02</pdfrwt>
<totfact> 0.12321202E+06</totfact>
</mgrwt>
</event>
<event>
 5    1  0.1154861E-006  0.2001053E+02  0.7818608E-02  0.1745119E+00
          4   -1    0    0  501    0  0.00000000000E+00  0.00000000000E+00  0.65544347040E+02  0.65559727187E+02  0.14200000000E+01 0. -1.
         -4   -1    0    0    0  501 -0.00000000000E+00 -0.00000000000E+00 -0.11782261683E+01  0.18451604005E+01  0.14200000000E+01 0.  1.
       1023    2    1    2    0    0  0.00000000000E+00  0.00000000000E+00  0.64366120871E+02  0.67404887588E+02  0.20010531095E+02 0.  0.
        -11    1    3    3    0    0 -0.61590281434E+01 -0.78788220452E+01  0.31140063546E+02  0.32706467593E+02  0.51100000000E-03 0.  1.
         11    1    3    3    0    0  0.61590281434E+01  0.78788220452E+01  0.33226057325E+02  0.34698419995E+02  0.51100000000E-03 0. -1.
<mgrwt>
<rscale>  0 0.20010531E+02</rscale>
<asrwt>0</asrwt>
<pdfrwt beam="1">  1        4 0.10136231E-01 0.20010531E+02</pdfrwt>
<pdfrwt beam="2">  1       -4 0.23375129E-03 0.20010531E+02</pdfrwt>
<totfact> 0.10831929E+06</totfact>
</mgrwt>
</event>
<event>
 5    1  0.1154861E-006  0.2000054E+02  0.7818608E-02  0.1745317E+00
          4   -1    0    0  501    0  0.00000000000E+00  0.00000000000E+00  0.37846148004E+01  0.40422406148E+01  0.14200000000E+01 0.  1.
         -4   -1    0    0    0  501 -0.00000000000E+00 -0.00000000000E+00 -0.25276226136E+02  0.25316081997E+02  0.14200000000E+01 0. -1.
       1023    2    1    2    0    0  0.00000000000E+00  0.00000000000E+00 -0.21491611335E+02  0.29358322611E+02  0.20000543712E+02 0.  0.
        -11    1    3    3    0    0  0.32009820252E+01  0.94739347790E+01 -0.10656387921E+02  0.14613703497E+02  0.51100000000E-03 0.  1.
         11    1    3    3    0    0 -0.32009820252E+01 -0.94739347790E+01 -0.10835223415E+02  0.14744619114E+02  0.51100000000E-03 0. -1.
<mgrwt>
<rscale>  0 0.20000544E+02</rscale>
<asrwt>0</asrwt>
<pdfrwt beam="1">  1        4 0.60513165E-03 0.20000544E+02</pdfrwt>
<pdfrwt beam="2">  1       -4 0.39115333E-02 0.20000544E+02</pdfrwt>
<totfact> 0.12488702E+06</totfact>
</mgrwt>
</event>
<event>
 5    1  0.1241364E-006  0.2000126E+02  0.7818608E-02  0.1745303E+00
         -4   -1    0    0    0  501 -0.00000000000E+00  0.00000000000E+00  0.69668420005E+01  0.71100835058E+01  0.14200000000E+01 0. -1.
          4   -1    0    0  501    0  0.00000000000E+00 -0.00000000000E+00 -0.14029995509E+02  0.14101672737E+02  0.14200000000E+01 0.  1.
       1023    2    1    2    0    0  0.00000000000E+00  0.00000000000E+00 -0.70631535084E+01  0.21211756243E+02  0.20001261596E+02 0.  0.
        -11    1    3    3    0    0 -0.52914259179E+01  0.84854420394E+01 -0.36412842692E+01  0.10642408855E+02  0.51100000000E-03 0.  1.
         11    1    3    3    0    0  0.52914259179E+01 -0.84854420394E+01 -0.34218692392E+01  0.10569347388E+02  0.51100000000E-03 0. -1.
<mgrwt>
<rscale>  0 0.20001262E+02</rscale>
<asrwt>0</asrwt>
<pdfrwt beam="2">  1        4 0.21749931E-02 0.20001262E+02</pdfrwt>
<pdfrwt beam="1">  1       -4 0.10883541E-02 0.20001262E+02</pdfrwt>
<totfact> 0.12940609E+06</totfact>
</mgrwt>
</event>
<event>
 5    1  0.1154861E-006  0.2000269E+02  0.7818608E-02  0.1745275E+00
         -4   -1    0    0    0  501 -0.00000000000E+00  0.00000000000E+00  0.71452244607E+02  0.71466353337E+02  0.14200000000E+01 0.  1.
          4   -1    0    0  501    0  0.00000000000E+00 -0.00000000000E+00 -0.10218248383E+01  0.17494359091E+01  0.14200000000E+01 0.  1.
       1023    2    1    2    0    0  0.00000000000E+00  0.00000000000E+00  0.70430419768E+02  0.73215789246E+02  0.20002693974E+02 0.  0.
        -11    1    3    3    0    0 -0.91565720941E+01 -0.40226909572E+01  0.35048024298E+02  0.36447069327E+02  0.51100000000E-03 0.  1.
         11    1    3    3    0    0  0.91565720941E+01  0.40226909572E+01  0.35382395470E+02  0.36768719919E+02  0.51100000000E-03 0. -1.
<mgrwt>
<rscale>  0 0.20002694E+02</rscale>
<asrwt>0</asrwt>
<pdfrwt beam="2">  1        4 0.21425913E-03 0.20002694E+02</pdfrwt>
<pdfrwt beam="1">  1       -4 0.11049711E-01 0.20002694E+02</pdfrwt>
<totfact> 0.10635837E+06</totfact>
</mgrwt>
</event>
<event>
 5    1  0.1154861E-006  0.2000679E+02  0.7818608E-02  0.1745193E+00
          4   -1    0    0  501    0  0.00000000000E+00  0.00000000000E+00  0.63634012026E+02  0.63649853782E+02  0.14200000000E+01 0. -1.
         -4   -1    0    0    0  501 -0.00000000000E+00 -0.00000000000E+00 -0.12326031895E+01  0.18803485376E+01  0.14200000000E+01 0.  1.
       1023    2    1    2    0    0  0.00000000000E+00  0.00000000000E+00  0.62401408837E+02  0.65530202320E+02  0.20006788631E+02 0.  0.
        -11    1    3    3    0    0  0.56811328823E+01 -0.82321835028E+01  0.31705812035E+02  0.33246091998E+02  0.51100000000E-03 0.  1.
         11    1    3    3    0    0 -0.56811328823E+01  0.82321835028E+01  0.30695596801E+02  0.32284110322E+02  0.51100000000E-03 0. -1.
<mgrwt>
<rscale>  0 0.20006789E+02</rscale>
<asrwt>0</asrwt>
<pdfrwt beam="1">  1        4 0.98408908E-02 0.20006789E+02</pdfrwt>
<pdfrwt beam="2">  1       -4 0.24067648E-03 0.20006789E+02</pdfrwt>
<totfact> 0.10904070E+06</totfact>
</mgrwt>
</event>
<event>
 5    1  0.1157168E-006  0.2000084E+02  0.7818608E-02  0.1745311E+00
          4   -1    0    0  501    0  0.00000000000E+00  0.00000000000E+00  0.38440397837E+02  0.38466616512E+02  0.14200000000E+01 0. -1.
         -4   -1    0    0    0  501 -0.00000000000E+00 -0.00000000000E+00 -0.23786703463E+01  0.27702838512E+01  0.14200000000E+01 0.  1.
       1023    2    1    2    0    0  0.00000000000E+00  0.00000000000E+00  0.36061727491E+02  0.41236900363E+02  0.20000844031E+02 0.  0.
        -11    1    3    3    0    0 -0.98932814222E+01 -0.14586931043E+01  0.18155209320E+02  0.20727190562E+02  0.51100000000E-03 0. -1.
         11    1    3    3    0    0  0.98932814222E+01  0.14586931043E+01  0.17906518170E+02  0.20509709801E+02  0.51100000000E-03 0.  1.
<mgrwt>
<rscale>  0 0.20000844E+02</rscale>
<asrwt>0</asrwt>
<pdfrwt beam="1">  1        4 0.59460479E-02 0.20000844E+02</pdfrwt>
<pdfrwt beam="2">  1       -4 0.39809025E-03 0.20000844E+02</pdfrwt>
<totfact> 0.11904409E+06</totfact>
</mgrwt>
</event>
<event>
 5    1  0.1154861E-006  0.2000044E+02  0.7818608E-02  0.1745319E+00
         -4   -1    0    0    0  501 -0.00000000000E+00  0.00000000000E+00  0.10708399284E+02  0.10802139382E+02  0.14200000000E+01 0. -1.
          4   -1    0    0  501    0  0.00000000000E+00 -0.00000000000E+00 -0.91494262911E+01  0.92589633036E+01  0.14200000000E+01 0.  1.
       1023    2    1    2    0    0  0.00000000000E+00  0.00000000000E+00  0.15589729926E+01  0.20061102685E+02  0.20000436099E+02 0.  0.
        -11    1    3    3    0    0  0.87233004588E+01 -0.48895797117E+01  0.75942268455E+00  0.10028992159E+02  0.51100000000E-03 0. -1.
         11    1    3    3    0    0 -0.87233004588E+01  0.48895797117E+01  0.79955030808E+00  0.10032110526E+02  0.51100000000E-03 0.  1.
<mgrwt>
<rscale>  0 0.20000436E+02</rscale>
<asrwt>0</asrwt>
<pdfrwt beam="2">  1        4 0.14232408E-02 0.20000436E+02</pdfrwt>
<pdfrwt beam="1">  1       -4 0.16630827E-02 0.20000436E+02</pdfrwt>
<totfact> 0.13009840E+06</totfact>
</mgrwt>
</event>
<event>
 5    1  0.1176255E-006  0.2000117E+02  0.7818608E-02  0.1745305E+00
          4   -1    0    0  501    0  0.00000000000E+00  0.00000000000E+00  0.46688391959E+01  0.48800060899E+01  0.14200000000E+01 0.  1.
         -4   -1    0    0    0  501 -0.00000000000E+00 -0.00000000000E+00 -0.20711376677E+02  0.20759998166E+02  0.14200000000E+01 0. -1.
       1023    2    1    2    0    0  0.00000000000E+00  0.00000000000E+00 -0.16042537481E+02  0.25640004256E+02  0.20001170201E+02 0.  0.
        -11    1    3    3    0    0  0.82684694414E+01  0.56249935733E+01 -0.80977825185E+01  0.12867875566E+02  0.51100000000E-03 0. -1.
         11    1    3    3    0    0 -0.82684694414E+01 -0.56249935733E+01 -0.79447549629E+01  0.12772128690E+02  0.51100000000E-03 0.  1.
<mgrwt>
<rscale>  0 0.20001170E+02</rscale>
<asrwt>0</asrwt>
<pdfrwt beam="1">  1        4 0.73826669E-03 0.20001170E+02</pdfrwt>
<pdfrwt beam="2">  1       -4 0.32063493E-02 0.20001170E+02</pdfrwt>
<totfact> 0.12688522E+06</totfact>
</mgrwt>
</event>
<event>
 5    1  0.1154861E-006  0.2001023E+02  0.7818608E-02  0.1745125E+00
          4   -1    0    0  501    0  0.00000000000E+00  0.00000000000E+00  0.44880519309E+01  0.47073357788E+01  0.14200000000E+01 0.  1.
         -4   -1    0    0    0  501 -0.00000000000E+00 -0.00000000000E+00 -0.21529069767E+02  0.21575848652E+02  0.14200000000E+01 0. -1.
       1023    2    1    2    0    0  0.00000000000E+00  0.00000000000E+00 -0.17041017836E+02  0.26283184430E+02  0.20010234754E+02 0.  0.
        -11    1    3    3    0    0  0.67069324877E+01  0.74228381769E+01 -0.87104133020E+01  0.13264719000E+02  0.51100000000E-03 0. -1.
         11    1    3    3    0    0 -0.67069324877E+01 -0.74228381769E+01 -0.83306045343E+01  0.13018465430E+02  0.51100000000E-03 0.  1.
<mgrwt>
<rscale>  0 0.20010235E+02</rscale>
<asrwt>0</asrwt>
<pdfrwt beam="1">  1        4 0.71093590E-03 0.20010235E+02</pdfrwt>
<pdfrwt beam="2">  1       -4 0.33326309E-02 0.20010235E+02</pdfrwt>
<totfact> 0.12641440E+06</totfact>
</mgrwt>
</event>
<event>
 5    1  0.1154861E-006  0.2000148E+02  0.7818608E-02  0.1745299E+00
         -4   -1    0    0    0  501 -0.00000000000E+00  0.00000000000E+00  0.16453808192E+02  0.16514969089E+02  0.14200000000E+01 0.  1.
          4   -1    0    0  501    0  0.00000000000E+00 -0.00000000000E+00 -0.59219952139E+01  0.60898626678E+01  0.14200000000E+01 0. -1.
       1023    2    1    2    0    0  0.00000000000E+00  0.00000000000E+00  0.10531812978E+02  0.22604831757E+02  0.20001483299E+02 0.  0.
        -11    1    3    3    0    0 -0.86952974036E+01  0.49399284987E+01  0.51967655207E+01  0.11270202423E+02  0.51100000000E-03 0.  1.
         11    1    3    3    0    0  0.86952974036E+01 -0.49399284987E+01  0.53350474571E+01  0.11334629334E+02  0.51100000000E-03 0. -1.
<mgrwt>
<rscale>  0 0.20001483E+02</rscale>
<asrwt>0</asrwt>
<pdfrwt beam="2">  1        4 0.92869375E-03 0.20001483E+02</pdfrwt>
<pdfrwt beam="1">  1       -4 0.25489727E-02 0.20001483E+02</pdfrwt>
<totfact> 0.12859315E+06</totfact>
</mgrwt>
</event>
<event>
 5    1  0.1154861E-006  0.2000266E+02  0.7818608E-02  0.1745275E+00
         -4   -1    0    0    0  501 -0.00000000000E+00  0.00000000000E+00  0.43549006376E+01  0.45805632365E+01  0.14200000000E+01 0.  1.
          4   -1    0    0  501    0  0.00000000000E+00 -0.00000000000E+00 -0.22139701894E+02  0.22185193260E+02  0.14200000000E+01 0. -1.
       1023    2    1    2    0    0  0.00000000000E+00  0.00000000000E+00 -0.17784801257E+02  0.26765756496E+02  0.20002663949E+02 0.  0.
        -11    1    3    3    0    0  0.24529464369E+01  0.96958435842E+01 -0.89160353985E+01  0.13398582631E+02  0.51100000000E-03 0. -1.
         11    1    3    3    0    0 -0.24529464369E+01 -0.96958435842E+01 -0.88687658580E+01  0.13367173865E+02  0.51100000000E-03 0.  1.
<mgrwt>
<rscale>  0 0.20002664E+02</rscale>
<asrwt>0</asrwt>
<pdfrwt beam="2">  1        4 0.34269659E-02 0.20002664E+02</pdfrwt>
<pdfrwt beam="1">  1       -4 0.69084273E-03 0.20002664E+02</pdfrwt>
<totfact> 0.12624814E+06</totfact>
</mgrwt>
</event>
<event>
 5    1  0.1192573E-006  0.2000150E+02  0.7818608E-02  0.1745298E+00
         -4   -1    0    0    0  501 -0.00000000000E+00  0.00000000000E+00  0.18251291677E+02  0.18306448259E+02  0.14200000000E+01 0.  1.
          4   -1    0    0  501    0  0.00000000000E+00 -0.00000000000E+00 -0.53232533002E+01  0.55093943131E+01  0.14200000000E+01 0. -1.
       1023    2    1    2    0    0  0.00000000000E+00  0.00000000000E+00  0.12928038377E+02  0.23815842573E+02  0.20001504473E+02 0.  0.
        -11    1    3    3    0    0 -0.36322824846E+01  0.93177816949E+01  0.64370432603E+01  0.11893277847E+02  0.51100000000E-03 0.  1.
         11    1    3    3    0    0  0.36322824846E+01 -0.93177816949E+01  0.64909951165E+01  0.11922564725E+02  0.51100000000E-03 0. -1.
<mgrwt>
<rscale>  0 0.20001504E+02</rscale>
<asrwt>0</asrwt>
<pdfrwt beam="2">  1        4 0.83752342E-03 0.20001504E+02</pdfrwt>
<pdfrwt beam="1">  1       -4 0.28264523E-02 0.20001504E+02</pdfrwt>
<totfact> 0.12790201E+06</totfact>
</mgrwt>
</event>
<event>
 5    1  0.1154861E-006  0.2000055E+02  0.7818608E-02  0.1745317E+00
          4   -1    0    0  501    0  0.00000000000E+00  0.00000000000E+00  0.28880045223E+02  0.28914934067E+02  0.14200000000E+01 0.  1.
         -4   -1    0    0    0  501 -0.00000000000E+00 -0.00000000000E+00 -0.32785694847E+01  0.35728724950E+01  0.14200000000E+01 0. -1.
       1023    2    1    2    0    0  0.00000000000E+00  0.00000000000E+00  0.25601475739E+02  0.32487806562E+02  0.20000550373E+02 0.  0.
        -11    1    3    3    0    0  0.45952945890E+01  0.88819333353E+01  0.12791634088E+02  0.16236729197E+02  0.51100000000E-03 0. -1.
         11    1    3    3    0    0 -0.45952945890E+01 -0.88819333353E+01  0.12809841651E+02  0.16251077365E+02  0.51100000000E-03 0.  1.
<mgrwt>
<rscale>  0 0.20000550E+02</rscale>
<asrwt>0</asrwt>
<pdfrwt beam="1">  1        4 0.44684061E-02 0.20000550E+02</pdfrwt>
<pdfrwt beam="2">  1       -4 0.52971778E-03 0.20000550E+02</pdfrwt>
<totfact> 0.12326936E+06</totfact>
</mgrwt>
</event>
<event>
 4    1  0.1154861E-006  0.2001369E+02  0.7818608E-02  0.1745056E+00
          4   -1    0    0  501    0  0.00000000000E+00  0.00000000000E+00  0.17440370891E+01  0.22490143103E+01  0.14200000000E+01 0.  1.
         -4   -1    0    0    0  501 -0.00000000000E+00 -0.00000000000E+00 -0.49639192203E+02  0.49659498614E+02  0.14200000000E+01 0. -1.
        -11    1    1    2    0    0  0.84512804493E+01 -0.53541553691E+01 -0.24502863701E+02  0.26466610111E+02  0.51100000000E-03 0.  1.
         11    1    1    2    0    0 -0.84512804493E+01  0.53541553691E+01 -0.23392291413E+02  0.25441902813E+02  0.51100000000E-03 0. -1.
<mgrwt>
<rscale>  0 0.20013691E+02</rscale>
<asrwt>0</asrwt>
<pdfrwt beam="1">  1        4 0.30871987E-03 0.20013691E+02</pdfrwt>
<pdfrwt beam="2">  1       -4 0.76772043E-02 0.20013691E+02</pdfrwt>
<totfact> 0.11424916E+06</totfact>
</mgrwt>
</event>
<event>
 4    1  0.1154861E-006  0.2024621E+02  0.7818608E-02  0.1740476E+00
         -4   -1    0    0    0  501 -0.00000000000E+00  0.00000000000E+00  0.79648554074E+00  0.16281244475E+01  0.14200000000E+01 0. -1.
          4   -1    0    0  501    0  0.00000000000E+00 -0.00000000000E+00 -0.83691191706E+02  0.83703237507E+02  0.14200000000E+01 0.  1.
        -11    1    1    2    0    0  0.52195726235E+01  0.86499908977E+01 -0.38745433636E+02  0.40040915434E+02  0.51100000000E-03 0.  1.
         11    1    1    2    0    0 -0.52195726235E+01 -0.86499908977E+01 -0.44149272529E+02  0.45290446520E+02  0.51100000000E-03 0. -1.
<mgrwt>
<rscale>  0 0.20246210E+02</rscale>
<asrwt>0</asrwt>
<pdfrwt beam="2">  1        4 0.12940462E-01 0.20246210E+02</pdfrwt>
<pdfrwt beam="1">  1       -4 0.18743513E-03 0.20246210E+02</pdfrwt>
<totfact> 0.99922411E+05</totfact>
</mgrwt>
</event>
<event>
 5    1  0.1154861E-006  0.2000064E+02  0.7818608E-02  0.1745315E+00
         -4   -1    0    0    0  501 -0.00000000000E+00  0.00000000000E+00  0.31328870556E+01  0.34396774998E+01  0.14200000000E+01 0. -1.
          4   -1    0    0  501    0  0.00000000000E+00 -0.00000000000E+00 -0.30107159172E+02  0.30140627621E+02  0.14200000000E+01 0.  1.
       1023    2    1    2    0    0  0.00000000000E+00  0.00000000000E+00 -0.26974272116E+02  0.33580305121E+02  0.20000638385E+02 0.  0.
        -11    1    3    3    0    0  0.84918492526E+01  0.52809857764E+01 -0.13356336497E+02  0.16685084338E+02  0.51100000000E-03 0. -1.
         11    1    3    3    0    0 -0.84918492526E+01 -0.52809857764E+01 -0.13617935619E+02  0.16895220783E+02  0.51100000000E-03 0.  1.
<mgrwt>
<rscale>  0 0.20000638E+02</rscale>
<asrwt>0</asrwt>
<pdfrwt beam="2">  1        4 0.46580442E-02 0.20000638E+02</pdfrwt>
<pdfrwt beam="1">  1       -4 0.50815641E-03 0.20000638E+02</pdfrwt>
<totfact> 0.12271728E+06</totfact>
</mgrwt>
</event>
<event>
 5    1  0.1154861E-006  0.2000288E+02  0.7818608E-02  0.1745271E+00
          4   -1    0    0  501    0  0.00000000000E+00  0.00000000000E+00  0.12214654495E+02  0.12296917681E+02  0.14200000000E+01 0. -1.
         -4   -1    0    0    0  501 -0.00000000000E+00 -0.00000000000E+00 -0.80168906710E+01  0.81416789442E+01  0.14200000000E+01 0.  1.
       1023    2    1    2    0    0  0.00000000000E+00  0.00000000000E+00  0.41977638244E+01  0.20438596625E+02  0.20002875065E+02 0.  0.
        -11    1    3    3    0    0  0.10001064387E+02 -0.29301406441E-01  0.20158403459E+01  0.10202242891E+02  0.51100000000E-03 0.  1.
         11    1    3    3    0    0 -0.10001064387E+02  0.29301406441E-01  0.21819234786E+01  0.10236353734E+02  0.51100000000E-03 0. -1.
<mgrwt>
<rscale>  0 0.20002875E+02</rscale>
<asrwt>0</asrwt>
<pdfrwt beam="1">  1        4 0.18951046E-02 0.20002875E+02</pdfrwt>
<pdfrwt beam="2">  1       -4 0.12492948E-02 0.20002875E+02</pdfrwt>
<totfact> 0.12984150E+06</totfact>
</mgrwt>
</event>
<event>
 5    1  0.1154861E-006  0.2000120E+02  0.7818608E-02  0.1745304E+00
         -4   -1    0    0    0  501 -0.00000000000E+00  0.00000000000E+00  0.47337129313E+00  0.14968234302E+01  0.14200000000E+01 0. -1.
          4   -1    0    0  501    0  0.00000000000E+00 -0.00000000000E+00 -0.10049387945E+03  0.10050391140E+03  0.14200000000E+01 0.  1.
       1023    2    1    2    0    0  0.00000000000E+00  0.00000000000E+00 -0.10002050815E+03  0.10200073483E+03  0.20001196318E+02 0.  0.
        -11    1    3    3    0    0  0.84343060918E+01 -0.53734909500E+01 -0.49978391724E+02  0.50969123632E+02  0.51100000000E-03 0. -1.
         11    1    3    3    0    0 -0.84343060918E+01  0.53734909500E+01 -0.50042116431E+02  0.51031611197E+02  0.51100000000E-03 0.  1.
<mgrwt>
<rscale>  0 0.20001196E+02</rscale>
<asrwt>0</asrwt>
<pdfrwt beam="2">  1        4 0.15540087E-01 0.20001196E+02</pdfrwt>
<pdfrwt beam="1">  1       -4 0.15232521E-03 0.20001196E+02</pdfrwt>
<totfact> 0.97434859E+05</totfact>
</mgrwt>
</event>
<event>
 5    1  0.1154861E-006  0.2000077E+02  0.7818608E-02  0.1745313E+00
         -4   -1    0    0    0  501 -0.00000000000E+00  0.00000000000E+00  0.14270439807E+01  0.20131702668E+01  0.14200000000E+01 0.  1.
          4   -1    0    0  501    0  0.00000000000E+00 -0.00000000000E+00 -0.57544027220E+02  0.57561545051E+02  0.14200000000E+01 0. -1.
       1023    2    1    2    0    0  0.00000000000E+00  0.00000000000E+00 -0.56116983239E+02  0.59574715318E+02  0.20000772419E+02 0.  0.
        -11    1    3    3    0    0 -0.95510441659E+01 -0.29635655167E+01 -0.27907817942E+02  0.29645429121E+02  0.51100000000E-03 0. -1.
         11    1    3    3    0    0  0.95510441659E+01  0.29635655167E+01 -0.28209165297E+02  0.29929286197E+02  0.51100000000E-03 0.  1.
<mgrwt>
<rscale>  0 0.20000772E+02</rscale>
<asrwt>0</asrwt>
<pdfrwt beam="2">  1        4 0.88993600E-02 0.20000772E+02</pdfrwt>
<pdfrwt beam="1">  1       -4 0.26597943E-03 0.20000772E+02</pdfrwt>
<totfact> 0.11134348E+06</totfact>
</mgrwt>
</event>
<event>
 5    1  0.1154861E-006  0.2000088E+02  0.7818608E-02  0.1745311E+00
          4   -1    0    0  501    0  0.00000000000E+00  0.00000000000E+00  0.15486896604E+01  0.21011519851E+01  0.14200000000E+01 0. -1.
         -4   -1    0    0    0  501 -0.00000000000E+00 -0.00000000000E+00 -0.54238534797E+02  0.54257119873E+02  0.14200000000E+01 0.  1.
       1023    2    1    2    0    0  0.00000000000E+00  0.00000000000E+00 -0.52689845137E+02  0.56358271858E+02  0.20000875639E+02 0.  0.
        -11    1    3    3    0    0 -0.90396292433E+01  0.42771260641E+01 -0.26365260452E+02  0.28198149996E+02  0.51100000000E-03 0.  1.
         11    1    3    3    0    0  0.90396292433E+01 -0.42771260641E+01 -0.26324584685E+02  0.28160121862E+02  0.51100000000E-03 0. -1.
<mgrwt>
<rscale>  0 0.20000876E+02</rscale>
<asrwt>0</asrwt>
<pdfrwt beam="1">  1        4 0.28218671E-03 0.20000876E+02</pdfrwt>
<pdfrwt beam="2">  1       -4 0.83883155E-02 0.20000876E+02</pdfrwt>
<totfact> 0.11259786E+06</totfact>
</mgrwt>
</event>
<event>
 5    1  0.1154861E-006  0.2000072E+02  0.7818608E-02  0.1745314E+00
         -4   -1    0    0    0  501 -0.00000000000E+00  0.00000000000E+00  0.14072791551E+01  0.19992084985E+01  0.14200000000E+01 0.  1.
          4   -1    0    0  501    0  0.00000000000E+00 -0.00000000000E+00 -0.58113594707E+02  0.58130940898E+02  0.14200000000E+01 0. -1.
       1023    2    1    2    0    0  0.00000000000E+00  0.00000000000E+00 -0.56706315551E+02  0.60130149397E+02  0.20000716064E+02 0.  0.
        -11    1    3    3    0    0 -0.71379475941E+01  0.70037852292E+01 -0.28539872154E+02  0.30241157488E+02  0.51100000000E-03 0. -1.
         11    1    3    3    0    0  0.71379475941E+01 -0.70037852292E+01 -0.28166443398E+02  0.29888991909E+02  0.51100000000E-03 0.  1.
<mgrwt>
<rscale>  0 0.20000716E+02</rscale>
<asrwt>0</asrwt>
<pdfrwt beam="2">  1        4 0.89874188E-02 0.20000716E+02</pdfrwt>
<pdfrwt beam="1">  1       -4 0.26337188E-03 0.20000716E+02</pdfrwt>
<totfact> 0.11113060E+06</totfact>
</mgrwt>
</event>
<event>
 4    1  0.1154861E-006  0.2404575E+02  0.7818608E-02  0.1675099E+00
         -4   -1    0    0    0  501 -0.00000000000E+00  0.00000000000E+00  0.17621766071E+02  0.17678886828E+02  0.14200000000E+01 0.  1.
          4   -1    0    0  501    0  0.00000000000E+00 -0.00000000000E+00 -0.80704139068E+01  0.81943871416E+01  0.14200000000E+01 0. -1.
        -11    1    1    2    0    0 -0.10311932050E+02  0.61815379735E+01  0.48254503425E+01  0.12955011601E+02  0.51100000000E-03 0. -1.
         11    1    1    2    0    0  0.10311932050E+02 -0.61815379735E+01  0.47259018218E+01  0.12918262368E+02  0.51100000000E-03 0.  1.
<mgrwt>
<rscale>  0 0.24045748E+02</rscale>
<asrwt>0</asrwt>
<pdfrwt beam="2">  1        4 0.12555324E-02 0.24045748E+02</pdfrwt>
<pdfrwt beam="1">  1       -4 0.27249712E-02 0.24045748E+02</pdfrwt>
<totfact> 0.86180987E+05</totfact>
</mgrwt>
</event>
<event>
 5    1  0.1202847E-006  0.2000076E+02  0.7818608E-02  0.1745313E+00
          4   -1    0    0  501    0  0.00000000000E+00  0.00000000000E+00  0.68160720913E+01  0.69624161577E+01  0.14200000000E+01 0.  1.
         -4   -1    0    0    0  501 -0.00000000000E+00 -0.00000000000E+00 -0.14334688298E+02  0.14404849482E+02  0.14200000000E+01 0. -1.
       1023    2    1    2    0    0  0.00000000000E+00  0.00000000000E+00 -0.75186162065E+01  0.21367265639E+02  0.20000761267E+02 0.  0.
        -11    1    3    3    0    0 -0.38086817321E+00 -0.99927884941E+01 -0.36716659340E+01  0.10652793692E+02  0.51100000000E-03 0.  1.
         11    1    3    3    0    0  0.38086817321E+00  0.99927884941E+01 -0.38469502724E+01  0.10714471947E+02  0.51100000000E-03 0. -1.
<mgrwt>
<rscale>  0 0.20000761E+02</rscale>
<asrwt>0</asrwt>
<pdfrwt beam="1">  1        4 0.10652807E-02 0.20000761E+02</pdfrwt>
<pdfrwt beam="2">  1       -4 0.22219909E-02 0.20000761E+02</pdfrwt>
<totfact> 0.12932137E+06</totfact>
</mgrwt>
</event>
<event>
 5    1  0.1154861E-006  0.2000047E+02  0.7818608E-02  0.1745319E+00
          4   -1    0    0  501    0  0.00000000000E+00  0.00000000000E+00  0.57066014402E+00  0.15303767510E+01  0.14200000000E+01 0. -1.
         -4   -1    0    0    0  501 -0.00000000000E+00 -0.00000000000E+00 -0.94228032988E+02  0.94238731957E+02  0.14200000000E+01 0.  1.
       1023    2    1    2    0    0  0.00000000000E+00  0.00000000000E+00 -0.93657372844E+02  0.95769108708E+02  0.20000467360E+02 0.  0.
        -11    1    3    3    0    0  0.10116559514E+01 -0.99488739363E+01 -0.46667508508E+02  0.47726930458E+02  0.51100000000E-03 0. -1.
         11    1    3    3    0    0 -0.10116559514E+01  0.99488739363E+01 -0.46989864336E+02  0.48042178250E+02  0.51100000000E-03 0.  1.
<mgrwt>
<rscale>  0 0.20000467E+02</rscale>
<asrwt>0</asrwt>
<pdfrwt beam="1">  1        4 0.16244130E-03 0.20000467E+02</pdfrwt>
<pdfrwt beam="2">  1       -4 0.14571261E-01 0.20000467E+02</pdfrwt>
<totfact> 0.99229565E+05</totfact>
</mgrwt>
</event>
<event>
 5    1  0.1154861E-006  0.2001048E+02  0.7818608E-02  0.1745120E+00
         -4   -1    0    0    0  501 -0.00000000000E+00  0.00000000000E+00  0.56103744765E+02  0.56121712168E+02  0.14200000000E+01 0. -1.
          4   -1    0    0  501    0  0.00000000000E+00 -0.00000000000E+00 -0.14805308135E+01  0.20514315708E+01  0.14200000000E+01 0.  1.
       1023    2    1    2    0    0  0.00000000000E+00  0.00000000000E+00  0.54623213952E+02  0.58173143739E+02  0.20010476008E+02 0.  0.
        -11    1    3    3    0    0  0.62660129009E+01 -0.77998082234E+01  0.27108913667E+02  0.28896247619E+02  0.51100000000E-03 0. -1.
         11    1    3    3    0    0 -0.62660129009E+01  0.77998082234E+01  0.27514300285E+02  0.29276896120E+02  0.51100000000E-03 0.  1.
<mgrwt>
<rscale>  0 0.20010476E+02</rscale>
<asrwt>0</asrwt>
<pdfrwt beam="2">  1        4 0.27307158E-03 0.20010476E+02</pdfrwt>
<pdfrwt beam="1">  1       -4 0.86766409E-02 0.20010476E+02</pdfrwt>
<totfact> 0.11177697E+06</totfact>
</mgrwt>
</event>
<event>
 5    1  0.1201182E-006  0.2000180E+02  0.7818608E-02  0.1745292E+00
         -4   -1    0    0    0  501 -0.00000000000E+00  0.00000000000E+00  0.12210662108E+02  0.12292952010E+02  0.14200000000E+01 0. -1.
          4   -1    0    0  501    0  0.00000000000E+00 -0.00000000000E+00 -0.80186538678E+01  0.81434151221E+01  0.14200000000E+01 0.  1.
       1023    2    1    2    0    0  0.00000000000E+00  0.00000000000E+00  0.41920082403E+01  0.20436367132E+02  0.20001804130E+02 0.  0.
        -11    1    3    3    0    0  0.28891601960E+01 -0.95739419966E+01  0.19916585855E+01  0.10196779696E+02  0.51100000000E-03 0. -1.
         11    1    3    3    0    0 -0.28891601960E+01  0.95739419966E+01  0.22003496549E+01  0.10239587436E+02  0.51100000000E-03 0.  1.
<mgrwt>
<rscale>  0 0.20001804E+02</rscale>
<asrwt>0</asrwt>
<pdfrwt beam="2">  1        4 0.12495661E-02 0.20001804E+02</pdfrwt>
<pdfrwt beam="1">  1       -4 0.18944904E-02 0.20001804E+02</pdfrwt>
<totfact> 0.12985701E+06</totfact>
</mgrwt>
</event>
<event>
 4    1  0.1154861E-006  0.2001339E+02  0.7818608E-02  0.1745062E+00
          4   -1    0    0  501    0  0.00000000000E+00  0.00000000000E+00  0.39886742924E+01  0.42339015825E+01  0.14200000000E+01 0. -1.
         -4   -1    0    0    0  501 -0.00000000000E+00 -0.00000000000E+00 -0.24089102294E+02  0.24130918949E+02  0.14200000000E+01 0.  1.
        -11    1    1    2    0    0  0.98765110371E+01  0.16032640277E+01 -0.98598879023E+01  0.14047537703E+02  0.51100000000E-03 0. -1.
         11    1    1    2    0    0 -0.98765110371E+01 -0.16032640277E+01 -0.10240540099E+02  0.14317282829E+02  0.51100000000E-03 0.  1.
<mgrwt>
<rscale>  0 0.20013391E+02</rscale>
<asrwt>0</asrwt>
<pdfrwt beam="1">  1        4 0.63572252E-03 0.20013391E+02</pdfrwt>
<pdfrwt beam="2">  1       -4 0.37280960E-02 0.20013391E+02</pdfrwt>
<totfact> 0.12524984E+06</totfact>
</mgrwt>
</event>
<event>
 5    1  0.1154861E-006  0.2000150E+02  0.7818608E-02  0.1745298E+00
          4   -1    0    0  501    0  0.00000000000E+00  0.00000000000E+00  0.14601540733E+02  0.14670425753E+02  0.14200000000E+01 0.  1.
         -4   -1    0    0    0  501 -0.00000000000E+00 -0.00000000000E+00 -0.66899193156E+01  0.68389634046E+01  0.14200000000E+01 0. -1.
       1023    2    1    2    0    0  0.00000000000E+00  0.00000000000E+00  0.79116214175E+01  0.21509389158E+02  0.20001501656E+02 0.  0.
        -11    1    3    3    0    0 -0.66622250505E+01  0.74582229607E+01  0.40294140178E+01  0.10781767478E+02  0.51100000000E-03 0. -1.
         11    1    3    3    0    0  0.66622250505E+01 -0.74582229607E+01  0.38822073997E+01  0.10727621680E+02  0.51100000000E-03 0.  1.
<mgrwt>
<rscale>  0 0.20001502E+02</rscale>
<asrwt>0</asrwt>
<pdfrwt beam="1">  1        4 0.22631547E-02 0.20001502E+02</pdfrwt>
<pdfrwt beam="2">  1       -4 0.10459821E-02 0.20001502E+02</pdfrwt>
<totfact> 0.12922836E+06</totfact>
</mgrwt>
</event>
<event>
 4    1  0.1154861E-006  0.2042461E+02  0.7818608E-02  0.1737014E+00
         -4   -1    0    0    0  501 -0.00000000000E+00  0.00000000000E+00  0.47772141199E+00  0.14982048416E+01  0.14200000000E+01 0. -1.
          4   -1    0    0  501    0  0.00000000000E+00 -0.00000000000E+00 -0.10453402301E+03  0.10454366727E+03  0.14200000000E+01 0.  1.
        -11    1    1    2    0    0  0.92944344474E+00 -0.10044298201E+02 -0.60301637105E+02  0.61139506289E+02  0.51100000000E-03 0. -1.
         11    1    1    2    0    0 -0.92944344474E+00  0.10044298201E+02 -0.43754664490E+02  0.44902365821E+02  0.51100000000E-03 0.  1.
<mgrwt>
<rscale>  0 0.20424611E+02</rscale>
<asrwt>0</asrwt>
<pdfrwt beam="2">  1        4 0.16161389E-01 0.20424611E+02</pdfrwt>
<pdfrwt beam="1">  1       -4 0.15273628E-03 0.20424611E+02</pdfrwt>
<totfact> 0.92356918E+05</totfact>
</mgrwt>
</event>
<event>
 4    1  0.1154861E-006  0.2005771E+02  0.7818608E-02  0.1744183E+00
         -4   -1    0    0    0  501 -0.00000000000E+00  0.00000000000E+00  0.16826679821E+02  0.16886490275E+02  0.14200000000E+01 0.  1.
          4   -1    0    0  501    0  0.00000000000E+00 -0.00000000000E+00 -0.58213786993E+01  0.59920655838E+01  0.14200000000E+01 0. -1.
        -11    1    1    2    0    0 -0.19160452140E+01 -0.98207303287E+01  0.62762196895E+01  0.11811388881E+02  0.51100000000E-03 0.  1.
         11    1    1    2    0    0  0.19160452140E+01  0.98207303287E+01  0.47290814321E+01  0.11067166977E+02  0.51100000000E-03 0. -1.
<mgrwt>
<rscale>  0 0.20057708E+02</rscale>
<asrwt>0</asrwt>
<pdfrwt beam="2">  1        4 0.91332730E-03 0.20057708E+02</pdfrwt>
<pdfrwt beam="1">  1       -4 0.26064505E-02 0.20057708E+02</pdfrwt>
<totfact> 0.12770279E+06</totfact>
</mgrwt>
</event>
<event>
 5    1  0.1207657E-006  0.2000080E+02  0.7818608E-02  0.1745312E+00
         -4   -1    0    0    0  501 -0.00000000000E+00  0.00000000000E+00  0.12309566563E+02  0.12391199658E+02  0.14200000000E+01 0. -1.
          4   -1    0    0  501    0  0.00000000000E+00 -0.00000000000E+00 -0.79528365119E+01  0.80786142738E+01  0.14200000000E+01 0.  1.
       1023    2    1    2    0    0  0.00000000000E+00  0.00000000000E+00  0.43567300510E+01  0.20469813932E+02  0.20000804625E+02 0.  0.
        -11    1    3    3    0    0 -0.90534033657E+00 -0.99593086818E+01  0.21538105173E+01  0.10229680863E+02  0.51100000000E-03 0. -1.
         11    1    3    3    0    0  0.90534033657E+00  0.99593086818E+01  0.22029195337E+01  0.10240133069E+02  0.51100000000E-03 0.  1.
<mgrwt>
<rscale>  0 0.20000805E+02</rscale>
<asrwt>0</asrwt>
<pdfrwt beam="2">  1        4 0.12394680E-02 0.20000805E+02</pdfrwt>
<pdfrwt beam="1">  1       -4 0.19097341E-02 0.20000805E+02</pdfrwt>
<totfact> 0.12985043E+06</totfact>
</mgrwt>
</event>
<event>
 5    1  0.1154861E-006  0.2000092E+02  0.7818608E-02  0.1745310E+00
         -4   -1    0    0    0  501 -0.00000000000E+00  0.00000000000E+00  0.11764499929E+03  0.11765356883E+03  0.14200000000E+01 0. -1.
          4   -1    0    0  501    0  0.00000000000E+00 -0.00000000000E+00 -0.24240095788E+00  0.14405409485E+01  0.14200000000E+01 0.  1.
       1023    2    1    2    0    0  0.00000000000E+00  0.00000000000E+00  0.11740259833E+03  0.11909410978E+03  0.20000922186E+02 0.  0.
        -11    1    3    3    0    0 -0.66110709711E+01  0.75033498054E+01  0.58391661333E+02  0.59241814888E+02  0.51100000000E-03 0. -1.
         11    1    3    3    0    0  0.66110709711E+01 -0.75033498054E+01  0.59010936998E+02  0.59852294888E+02  0.51100000000E-03 0.  1.
<mgrwt>
<rscale>  0 0.20000922E+02</rscale>
<asrwt>0</asrwt>
<pdfrwt beam="2">  1        4 0.13011633E-03 0.20000922E+02</pdfrwt>
<pdfrwt beam="1">  1       -4 0.18192045E-01 0.20000922E+02</pdfrwt>
<totfact> 0.92878324E+05</totfact>
</mgrwt>
</event>
<event>
 5    1  0.1154861E-006  0.2000442E+02  0.7818608E-02  0.1745240E+00
         -4   -1    0    0    0  501 -0.00000000000E+00  0.00000000000E+00  0.20997202748E+02  0.21045163892E+02  0.14200000000E+01 0. -1.
          4   -1    0    0  501    0  0.00000000000E+00 -0.00000000000E+00 -0.46041237516E+01  0.48181278024E+01  0.14200000000E+01 0.  1.
       1023    2    1    2    0    0  0.00000000000E+00  0.00000000000E+00  0.16393078996E+02  0.25863291694E+02  0.20004419969E+02 0.  0.
        -11    1    3    3    0    0  0.82670194189E+01 -0.56289356017E+01  0.83584244019E+01  0.13034254287E+02  0.51100000000E-03 0. -1.
         11    1    3    3    0    0 -0.82670194189E+01  0.56289356017E+01  0.80346545945E+01  0.12829037407E+02  0.51100000000E-03 0.  1.
<mgrwt>
<rscale>  0 0.20004420E+02</rscale>
<asrwt>0</asrwt>
<pdfrwt beam="2">  1        4 0.72847790E-03 0.20004420E+02</pdfrwt>
<pdfrwt beam="1">  1       -4 0.32504900E-02 0.20004420E+02</pdfrwt>
<totfact> 0.12671999E+06</totfact>
</mgrwt>
</event>
<event>
 5    1  0.1154861E-006  0.2000396E+02  0.7818608E-02  0.1745249E+00
          4   -1    0    0  501    0  0.00000000000E+00  0.00000000000E+00  0.32138456382E+02  0.32169811604E+02  0.14200000000E+01 0. -1.
         -4   -1    0    0    0  501 -0.00000000000E+00 -0.00000000000E+00 -0.29161387995E+01  0.32434958761E+01  0.14200000000E+01 0.  1.
       1023    2    1    2    0    0  0.00000000000E+00  0.00000000000E+00  0.29222317582E+02  0.35413307480E+02  0.20003962152E+02 0.  0.
        -11    1    3    3    0    0 -0.39641508508E+01  0.91823219875E+01  0.14433278473E+02  0.17559870637E+02  0.51100000000E-03 0.  1.
         11    1    3    3    0    0  0.39641508508E+01 -0.91823219875E+01  0.14789039110E+02  0.17853436843E+02  0.51100000000E-03 0. -1.
<mgrwt>
<rscale>  0 0.20003962E+02</rscale>
<asrwt>0</asrwt>
<pdfrwt beam="1">  1        4 0.49719711E-02 0.20003962E+02</pdfrwt>
<pdfrwt beam="2">  1       -4 0.47623000E-03 0.20003962E+02</pdfrwt>
<totfact> 0.12176784E+06</totfact>
</mgrwt>
</event>
<event>
 5    1  0.1154861E-006  0.2000388E+02  0.7818608E-02  0.1745251E+00
          4   -1    0    0  501    0  0.00000000000E+00  0.00000000000E+00  0.33561093136E+02  0.33591120441E+02  0.14200000000E+01 0. -1.
         -4   -1    0    0    0  501 -0.00000000000E+00 -0.00000000000E+00 -0.27784434396E+01  0.31202801071E+01  0.14200000000E+01 0.  1.
       1023    2    1    2    0    0  0.00000000000E+00  0.00000000000E+00  0.30782649696E+02  0.36711400548E+02  0.20003884820E+02 0.  0.
        -11    1    3    3    0    0  0.51159929209E+01 -0.85933789229E+01  0.15136323735E+02  0.18141880866E+02  0.51100000000E-03 0. -1.
         11    1    3    3    0    0 -0.51159929209E+01  0.85933789229E+01  0.15646325961E+02  0.18569519682E+02  0.51100000000E-03 0.  1.
<mgrwt>
<rscale>  0 0.20003885E+02</rscale>
<asrwt>0</asrwt>
<pdfrwt beam="1">  1        4 0.51918500E-02 0.20003885E+02</pdfrwt>
<pdfrwt beam="2">  1       -4 0.45605776E-03 0.20003885E+02</pdfrwt>
<totfact> 0.12113743E+06</totfact>
</mgrwt>
</event>
<event>
 5    1  0.1154861E-006  0.2000080E+02  0.7818608E-02  0.1745312E+00
         -4   -1    0    0    0  501 -0.00000000000E+00  0.00000000000E+00  0.80789668349E+02  0.80802146704E+02  0.14200000000E+01 0.  1.
          4   -1    0    0  501    0  0.00000000000E+00 -0.00000000000E+00 -0.81385743786E+00  0.16366929856E+01  0.14200000000E+01 0. -1.
       1023    2    1    2    0    0  0.00000000000E+00  0.00000000000E+00  0.79975810911E+02  0.82438839690E+02  0.20000798945E+02 0.  0.
        -11    1    3    3    0    0  0.21193460645E+01 -0.97732201512E+01  0.39893061100E+02  0.41127409158E+02  0.51100000000E-03 0.  1.
         11    1    3    3    0    0 -0.21193460645E+01  0.97732201512E+01  0.40082749812E+02  0.41311430532E+02  0.51100000000E-03 0. -1.
<mgrwt>
<rscale>  0 0.20000799E+02</rscale>
<asrwt>0</asrwt>
<pdfrwt beam="2">  1        4 0.18946373E-03 0.20000799E+02</pdfrwt>
<pdfrwt beam="1">  1       -4 0.12493436E-01 0.20000799E+02</pdfrwt>
<totfact> 0.10331333E+06</totfact>
</mgrwt>
</event>
<event>
 5    1  0.1154861E-006  0.2000044E+02  0.7818608E-02  0.1745319E+00
         -4   -1    0    0    0  501 -0.00000000000E+00  0.00000000000E+00  0.35492777295E+01  0.38227964112E+01  0.14200000000E+01 0.  1.
          4   -1    0    0  501    0  0.00000000000E+00 -0.00000000000E+00 -0.26837617118E+02  0.26875157536E+02  0.14200000000E+01 0. -1.
       1023    2    1    2    0    0  0.00000000000E+00  0.00000000000E+00 -0.23288339389E+02  0.30697953947E+02  0.20000440622E+02 0.  0.
        -11    1    3    3    0    0  0.82297604841E+01 -0.56808394208E+01 -0.11553212311E+02  0.15279974121E+02  0.51100000000E-03 0.  1.
         11    1    3    3    0    0 -0.82297604841E+01  0.56808394208E+01 -0.11735127077E+02  0.15417979827E+02  0.51100000000E-03 0. -1.
<mgrwt>
<rscale>  0 0.20000441E+02</rscale>
<asrwt>0</asrwt>
<pdfrwt beam="2">  1        4 0.41527917E-02 0.20000441E+02</pdfrwt>
<pdfrwt beam="1">  1       -4 0.56997037E-03 0.20000441E+02</pdfrwt>
<totfact> 0.12418889E+06</totfact>
</mgrwt>
</event>
<event>
 5    1  0.1154861E-006  0.2000760E+02  0.7818608E-02  0.1745177E+00
          4   -1    0    0  501    0  0.00000000000E+00  0.00000000000E+00  0.24112872265E+01  0.27983398809E+01  0.14200000000E+01 0. -1.
         -4   -1    0    0    0  501 -0.00000000000E+00 -0.00000000000E+00 -0.38018367960E+02  0.38044877479E+02  0.14200000000E+01 0.  1.
       1023    2    1    2    0    0  0.00000000000E+00  0.00000000000E+00 -0.35607080734E+02  0.40843217360E+02  0.20007603702E+02 0.  0.
        -11    1    3    3    0    0  0.38695337549E+00  0.99959228952E+01 -0.17622744985E+02  0.20263991426E+02  0.51100000000E-03 0. -1.
         11    1    3    3    0    0 -0.38695337549E+00 -0.99959228952E+01 -0.17984335749E+02  0.20579225934E+02  0.51100000000E-03 0.  1.
<mgrwt>
<rscale>  0 0.20007604E+02</rscale>
<asrwt>0</asrwt>
<pdfrwt beam="1">  1        4 0.40277977E-03 0.20007604E+02</pdfrwt>
<pdfrwt beam="2">  1       -4 0.58807917E-02 0.20007604E+02</pdfrwt>
<totfact> 0.11914375E+06</totfact>
</mgrwt>
</event>
<event>
 5    1  0.1154861E-006  0.2000583E+02  0.7818608E-02  0.1745212E+00
         -4   -1    0    0    0  501 -0.00000000000E+00  0.00000000000E+00  0.25132569818E+01  0.28866694747E+01  0.14200000000E+01 0.  1.
          4   -1    0    0  501    0  0.00000000000E+00 -0.00000000000E+00 -0.36671036467E+02  0.36698519256E+02  0.14200000000E+01 0. -1.
       1023    2    1    2    0    0  0.00000000000E+00  0.00000000000E+00 -0.34157779485E+02  0.39585188731E+02  0.20005830837E+02 0.  0.
        -11    1    3    3    0    0 -0.93259157785E+01  0.36160772863E+01 -0.16885054001E+02  0.19625334874E+02  0.51100000000E-03 0. -1.
         11    1    3    3    0    0  0.93259157785E+01 -0.36160772863E+01 -0.17272725484E+02  0.19959853856E+02  0.51100000000E-03 0.  1.
<mgrwt>
<rscale>  0 0.20005831E+02</rscale>
<asrwt>0</asrwt>
<pdfrwt beam="2">  1        4 0.56725357E-02 0.20005831E+02</pdfrwt>
<pdfrwt beam="1">  1       -4 0.41749304E-03 0.20005831E+02</pdfrwt>
<totfact> 0.11974891E+06</totfact>
</mgrwt>
</event>
<event>
 5    1  0.1154861E-006  0.2000019E+02  0.7818608E-02  0.1745324E+00
         -4   -1    0    0    0  501 -0.00000000000E+00  0.00000000000E+00  0.40720011754E+02  0.40744763556E+02  0.14200000000E+01 0.  1.
          4   -1    0    0  501    0  0.00000000000E+00 -0.00000000000E+00 -0.22228565213E+01  0.26377056535E+01  0.14200000000E+01 0. -1.
       1023    2    1    2    0    0  0.00000000000E+00  0.00000000000E+00  0.38497155233E+02  0.43382469210E+02  0.20000191842E+02 0.  0.
        -11    1    3    3    0    0  0.87353013287E+01 -0.48678714577E+01  0.19283306131E+02  0.21722052330E+02  0.51100000000E-03 0. -1.
         11    1    3    3    0    0 -0.87353013287E+01  0.48678714577E+01  0.19213849102E+02  0.21660416880E+02  0.51100000000E-03 0.  1.
<mgrwt>
<rscale>  0 0.20000192E+02</rscale>
<asrwt>0</asrwt>
<pdfrwt beam="2">  1        4 0.37579341E-03 0.20000192E+02</pdfrwt>
<pdfrwt beam="1">  1       -4 0.62984323E-02 0.20000192E+02</pdfrwt>
<totfact> 0.11807705E+06</totfact>
</mgrwt>
</event>
<event>
 5    1  0.1154861E-006  0.2000989E+02  0.7818608E-02  0.1745131E+00
         -4   -1    0    0    0  501 -0.00000000000E+00  0.00000000000E+00  0.50190541748E+02  0.50210625180E+02  0.14200000000E+01 0.  1.
          4   -1    0    0  501    0  0.00000000000E+00 -0.00000000000E+00 -0.17184557916E+01  0.22292353639E+01  0.14200000000E+01 0. -1.
       1023    2    1    2    0    0  0.00000000000E+00  0.00000000000E+00  0.48472085957E+02  0.52439860544E+02  0.20009893975E+02 0.  0.
        -11    1    3    3    0    0 -0.39456452309E+01 -0.91939754672E+01  0.24129178226E+02  0.26121151263E+02  0.51100000000E-03 0. -1.
         11    1    3    3    0    0  0.39456452309E+01  0.91939754672E+01  0.24342907731E+02  0.26318709281E+02  0.51100000000E-03 0.  1.
<mgrwt>
<rscale>  0 0.20009894E+02</rscale>
<asrwt>0</asrwt>
<pdfrwt beam="2">  1        4 0.30521344E-03 0.20009894E+02</pdfrwt>
<pdfrwt beam="1">  1       -4 0.77624572E-02 0.20009894E+02</pdfrwt>
<totfact> 0.11407432E+06</totfact>
</mgrwt>
</event>
<event>
 4    1  0.1154861E-006  0.2017948E+02  0.7818608E-02  0.1741782E+00
          4   -1    0    0  501    0  0.00000000000E+00  0.00000000000E+00  0.39535340679E+02  0.39560833694E+02  0.14200000000E+01 0. -1.
         -4   -1    0    0    0  501 -0.00000000000E+00 -0.00000000000E+00 -0.23508024867E+01  0.27463926033E+01  0.14200000000E+01 0.  1.
        -11    1    1    2    0    0 -0.60538680530E+01  0.80698158445E+01  0.18965152043E+02  0.21481346290E+02  0.51100000000E-03 0. -1.
         11    1    1    2    0    0  0.60538680530E+01 -0.80698158445E+01  0.18219386149E+02  0.20825880007E+02  0.51100000000E-03 0.  1.
<mgrwt>
<rscale>  0 0.20179483E+02</rscale>
<asrwt>0</asrwt>
<pdfrwt beam="1">  1        4 0.61147513E-02 0.20179483E+02</pdfrwt>
<pdfrwt beam="2">  1       -4 0.39405292E-03 0.20179483E+02</pdfrwt>
<totfact> 0.11643982E+06</totfact>
</mgrwt>
</event>
<event>
 5    1  0.1219982E-006  0.2000102E+02  0.7818608E-02  0.1745308E+00
         -4   -1    0    0    0  501 -0.00000000000E+00  0.00000000000E+00  0.43986011173E+01  0.46221306547E+01  0.14200000000E+01 0. -1.
          4   -1    0    0  501    0  0.00000000000E+00 -0.00000000000E+00 -0.21926350595E+02  0.21972283687E+02  0.14200000000E+01 0.  1.
       1023    2    1    2    0    0  0.00000000000E+00  0.00000000000E+00 -0.17527749478E+02  0.26594414342E+02  0.20001021785E+02 0.  0.
        -11    1    3    3    0    0  0.89662151167E+01 -0.44291074888E+01 -0.87445522456E+01  0.13284472173E+02  0.51100000000E-03 0. -1.
         11    1    3    3    0    0 -0.89662151167E+01  0.44291074888E+01 -0.87831972325E+01  0.13309942169E+02  0.51100000000E-03 0.  1.
<mgrwt>
<rscale>  0 0.20001022E+02</rscale>
<asrwt>0</asrwt>
<pdfrwt beam="2">  1        4 0.33940126E-02 0.20001022E+02</pdfrwt>
<pdfrwt beam="1">  1       -4 0.69743577E-03 0.20001022E+02</pdfrwt>
<totfact> 0.12636267E+06</totfact>
</mgrwt>
</event>
<event>
 5    1  0.1154861E-006  0.2000597E+02  0.7818608E-02  0.1745209E+00
          4   -1    0    0  501    0  0.00000000000E+00  0.00000000000E+00  0.28719418995E+02  0.28754502733E+02  0.14200000000E+01 0.  1.
         -4   -1    0    0    0  501 -0.00000000000E+00 -0.00000000000E+00 -0.33004904125E+01  0.35929983250E+01  0.14200000000E+01 0. -1.
       1023    2    1    2    0    0  0.00000000000E+00  0.00000000000E+00  0.25418928583E+02  0.32347501058E+02  0.20005971469E+02 0.  0.
        -11    1    3    3    0    0 -0.84851405190E+01  0.52970819614E+01  0.12620367698E+02  0.16103737704E+02  0.51100000000E-03 0. -1.
         11    1    3    3    0    0  0.84851405190E+01 -0.52970819614E+01  0.12798560884E+02  0.16243763354E+02  0.51100000000E-03 0.  1.
<mgrwt>
<rscale>  0 0.20005971E+02</rscale>
<asrwt>0</asrwt>
<pdfrwt beam="1">  1        4 0.44435716E-02 0.20005971E+02</pdfrwt>
<pdfrwt beam="2">  1       -4 0.53296710E-03 0.20005971E+02</pdfrwt>
<totfact> 0.12327281E+06</totfact>
</mgrwt>
</event>
<event>
 5    1  0.1240168E-006  0.2000122E+02  0.7818608E-02  0.1745304E+00
         -4   -1    0    0    0  501 -0.00000000000E+00  0.00000000000E+00  0.38323169105E+01  0.40869368606E+01  0.14200000000E+01 0.  1.
          4   -1    0    0  501    0  0.00000000000E+00 -0.00000000000E+00 -0.24982562343E+02  0.25022885949E+02  0.14200000000E+01 0. -1.
       1023    2    1    2    0    0  0.00000000000E+00  0.00000000000E+00 -0.21150245432E+02  0.29109822809E+02  0.20001222516E+02 0.  0.
        -11    1    3    3    0    0  0.91281637416E+01 -0.40849966183E+01 -0.10515921424E+02  0.14511897681E+02  0.51100000000E-03 0. -1.
         11    1    3    3    0    0 -0.91281637416E+01  0.40849966183E+01 -0.10634324008E+02  0.14597925128E+02  0.51100000000E-03 0.  1.
<mgrwt>
<rscale>  0 0.20001223E+02</rscale>
<asrwt>0</asrwt>
<pdfrwt beam="2">  1        4 0.38661590E-02 0.20001223E+02</pdfrwt>
<pdfrwt beam="1">  1       -4 0.61227520E-03 0.20001223E+02</pdfrwt>
<totfact> 0.12500945E+06</totfact>
</mgrwt>
</event>
<event>
 5    1  0.1154861E-006  0.2000047E+02  0.7818608E-02  0.1745319E+00
          4   -1    0    0  501    0  0.00000000000E+00  0.00000000000E+00  0.36098836205E+02  0.36126754287E+02  0.14200000000E+01 0.  1.
         -4   -1    0    0    0  501 -0.00000000000E+00 -0.00000000000E+00 -0.25573489668E+01  0.29251382425E+01  0.14200000000E+01 0. -1.
       1023    2    1    2    0    0  0.00000000000E+00  0.00000000000E+00  0.33541487238E+02  0.39051892530E+02  0.20000473595E+02 0.  0.
        -11    1    3    3    0    0  0.41219118994E+01 -0.91110953849E+01  0.16868739888E+02  0.19610114801E+02  0.51100000000E-03 0.  1.
         11    1    3    3    0    0 -0.41219118994E+01  0.91110953849E+01  0.16672747350E+02  0.19441777729E+02  0.51100000000E-03 0. -1.
<mgrwt>
<rscale>  0 0.20000474E+02</rscale>
<asrwt>0</asrwt>
<pdfrwt beam="1">  1        4 0.55841061E-02 0.20000474E+02</pdfrwt>
<pdfrwt beam="2">  1       -4 0.42387733E-03 0.20000474E+02</pdfrwt>
<totfact> 0.12006393E+06</totfact>
</mgrwt>
</event>
<event>
 5    1  0.1154861E-006  0.2000058E+02  0.7818608E-02  0.1745317E+00
          4   -1    0    0  501    0  0.00000000000E+00  0.00000000000E+00  0.64891084297E+00  0.15612447861E+01  0.14200000000E+01 0.  1.
         -4   -1    0    0    0  501 -0.00000000000E+00 -0.00000000000E+00 -0.89576300445E+02  0.89587554947E+02  0.14200000000E+01 0. -1.
       1023    2    1    2    0    0  0.00000000000E+00  0.00000000000E+00 -0.88927389602E+02  0.91148799733E+02  0.20000576776E+02 0.  0.
        -11    1    3    3    0    0  0.69517521512E+01 -0.71886642263E+01 -0.44259059256E+02  0.45374751545E+02  0.51100000000E-03 0. -1.
         11    1    3    3    0    0 -0.69517521512E+01  0.71886642263E+01 -0.44668330346E+02  0.45774048188E+02  0.51100000000E-03 0.  1.
<mgrwt>
<rscale>  0 0.20000577E+02</rscale>
<asrwt>0</asrwt>
<pdfrwt beam="1">  1        4 0.17087777E-03 0.20000577E+02</pdfrwt>
<pdfrwt beam="2">  1       -4 0.13852009E-01 0.20000577E+02</pdfrwt>
<totfact> 0.10060275E+06</totfact>
</mgrwt>
</event>
<event>
 5    1  0.1154861E-006  0.2000037E+02  0.7818608E-02  0.1745321E+00
         -4   -1    0    0    0  501 -0.00000000000E+00  0.00000000000E+00  0.63892486900E+02  0.63908264585E+02  0.14200000000E+01 0. -1.
          4   -1    0    0  501    0  0.00000000000E+00 -0.00000000000E+00 -0.12237781256E+01  0.18745753921E+01  0.14200000000E+01 0.  1.
       1023    2    1    2    0    0  0.00000000000E+00  0.00000000000E+00  0.62668708774E+02  0.65782839977E+02  0.20000374397E+02 0.  0.
        -11    1    3    3    0    0  0.96146379669E+01  0.27497307897E+01  0.31460076968E+02  0.33011190917E+02  0.51100000000E-03 0.  1.
         11    1    3    3    0    0 -0.96146379669E+01 -0.27497307897E+01  0.31208631806E+02  0.32771649060E+02  0.51100000000E-03 0. -1.
<mgrwt>
<rscale>  0 0.20000374E+02</rscale>
<asrwt>0</asrwt>
<pdfrwt beam="2">  1        4 0.23954849E-03 0.20000374E+02</pdfrwt>
<pdfrwt beam="1">  1       -4 0.98808911E-02 0.20000374E+02</pdfrwt>
<totfact> 0.10901854E+06</totfact>
</mgrwt>
</event>
<event>
 5    1  0.1154861E-006  0.2000028E+02  0.7818608E-02  0.1745323E+00
          4   -1    0    0  501    0  0.00000000000E+00  0.00000000000E+00  0.74383197891E+01  0.75726482346E+01  0.14200000000E+01 0.  1.
         -4   -1    0    0    0  501 -0.00000000000E+00 -0.00000000000E+00 -0.13151070758E+02  0.13227511560E+02  0.14200000000E+01 0. -1.
       1023    2    1    2    0    0  0.00000000000E+00  0.00000000000E+00 -0.57127509688E+01  0.20800159795E+02  0.20000278095E+02 0.  0.
        -11    1    3    3    0    0 -0.83100206965E+01 -0.55628502610E+01 -0.28898125604E+01  0.10409263370E+02  0.51100000000E-03 0.  1.
         11    1    3    3    0    0  0.83100206965E+01  0.55628502610E+01 -0.28229384084E+01  0.10390896425E+02  0.51100000000E-03 0. -1.
<mgrwt>
<rscale>  0 0.20000278E+02</rscale>
<asrwt>0</asrwt>
<pdfrwt beam="1">  1        4 0.11605699E-02 0.20000278E+02</pdfrwt>
<pdfrwt beam="2">  1       -4 0.20394547E-02 0.20000278E+02</pdfrwt>
<totfact> 0.12966199E+06</totfact>
</mgrwt>
</event>
<event>
 5    1  0.1154861E-006  0.2000074E+02  0.7818608E-02  0.1745313E+00
         -4   -1    0    0    0  501 -0.00000000000E+00  0.00000000000E+00  0.12033191505E+03  0.12034029325E+03  0.14200000000E+01 0.  1.
          4   -1    0    0  501    0  0.00000000000E+00 -0.00000000000E+00 -0.20990493581E+00  0.14354302777E+01  0.14200000000E+01 0. -1.
       1023    2    1    2    0    0  0.00000000000E+00  0.00000000000E+00  0.12012201012E+03  0.12177572353E+03  0.20000738160E+02 0.  0.
        -11    1    3    3    0    0 -0.97488281037E+01  0.22287978394E+01  0.59976580953E+02  0.60804584139E+02  0.51100000000E-03 0. -1.
         11    1    3    3    0    0  0.97488281037E+01 -0.22287978394E+01  0.60145429162E+02  0.60971139390E+02  0.51100000000E-03 0.  1.
<mgrwt>
<rscale>  0 0.20000738E+02</rscale>
<asrwt>0</asrwt>
<pdfrwt beam="2">  1        4 0.12720890E-03 0.20000738E+02</pdfrwt>
<pdfrwt beam="1">  1       -4 0.18607492E-01 0.20000738E+02</pdfrwt>
<totfact> 0.92206549E+05</totfact>
</mgrwt>
</event>
<event>
 5    1  0.1154861E-006  0.2000329E+02  0.7818608E-02  0.1745263E+00
         -4   -1    0    0    0  501 -0.00000000000E+00  0.00000000000E+00  0.92281522495E+00  0.16935134896E+01  0.14200000000E+01 0.  1.
          4   -1    0    0  501    0  0.00000000000E+00 -0.00000000000E+00 -0.75688809327E+02  0.75702128486E+02  0.14200000000E+01 0. -1.
       1023    2    1    2    0    0  0.00000000000E+00  0.00000000000E+00 -0.74765994102E+02  0.77395641976E+02  0.20003287799E+02 0.  0.
        -11    1    3    3    0    0  0.31424638750E+01  0.94946226082E+01 -0.37768802592E+02  0.39070518133E+02  0.51100000000E-03 0.  1.
         11    1    3    3    0    0 -0.31424638750E+01 -0.94946226082E+01 -0.36997191510E+02  0.38325123843E+02  0.51100000000E-03 0. -1.
<mgrwt>
<rscale>  0 0.20003288E+02</rscale>
<asrwt>0</asrwt>
<pdfrwt beam="2">  1        4 0.11704738E-01 0.20003288E+02</pdfrwt>
<pdfrwt beam="1">  1       -4 0.20228067E-03 0.20003288E+02</pdfrwt>
<totfact> 0.10493668E+06</totfact>
</mgrwt>
</event>
<event>
 5    1  0.1154861E-006  0.2000028E+02  0.7818608E-02  0.1745323E+00
         -4   -1    0    0    0  501 -0.00000000000E+00  0.00000000000E+00  0.28297680034E+02  0.28333285996E+02  0.14200000000E+01 0.  1.
          4   -1    0    0  501    0  0.00000000000E+00 -0.00000000000E+00 -0.33518467768E+01  0.36402303245E+01  0.14200000000E+01 0. -1.
       1023    2    1    2    0    0  0.00000000000E+00  0.00000000000E+00  0.24945833257E+02  0.31973516320E+02  0.20000278723E+02 0.  0.
        -11    1    3    3    0    0  0.98069394385E+01 -0.19561355904E+01  0.12498663664E+02  0.16006846075E+02  0.51100000000E-03 0. -1.
         11    1    3    3    0    0 -0.98069394385E+01  0.19561355904E+01  0.12447169593E+02  0.15966670246E+02  0.51100000000E-03 0.  1.
<mgrwt>
<rscale>  0 0.20000279E+02</rscale>
<asrwt>0</asrwt>
<pdfrwt beam="2">  1        4 0.54059102E-03 0.20000279E+02</pdfrwt>
<pdfrwt beam="1">  1       -4 0.43784114E-02 0.20000279E+02</pdfrwt>
<totfact> 0.12353467E+06</totfact>
</mgrwt>
</event>
<event>
 5    1  0.1154861E-006  0.2000028E+02  0.7818608E-02  0.1745322E+00
          4   -1    0    0  501    0  0.00000000000E+00  0.00000000000E+00  0.50787700789E+01  0.52735477161E+01  0.14200000000E+01 0.  1.
         -4   -1    0    0    0  501 -0.00000000000E+00 -0.00000000000E+00 -0.19098255338E+02  0.19150972742E+02  0.14200000000E+01 0. -1.
       1023    2    1    2    0    0  0.00000000000E+00  0.00000000000E+00 -0.14019485259E+02  0.24424520458E+02  0.20000280815E+02 0.  0.
        -11    1    3    3    0    0 -0.54356314877E+00  0.99852306921E+01 -0.69484988530E+01  0.12177106776E+02  0.51100000000E-03 0.  1.
         11    1    3    3    0    0  0.54356314877E+00 -0.99852306921E+01 -0.70709864062E+01  0.12247413682E+02  0.51100000000E-03 0. -1.
<mgrwt>
<rscale>  0 0.20000281E+02</rscale>
<asrwt>0</asrwt>
<pdfrwt beam="1">  1        4 0.80038733E-03 0.20000281E+02</pdfrwt>
<pdfrwt beam="2">  1       -4 0.29572312E-02 0.20000281E+02</pdfrwt>
<totfact> 0.12757480E+06</totfact>
</mgrwt>
</event>
<event>
 5    1  0.1154861E-006  0.2000333E+02  0.7818608E-02  0.1745262E+00
          4   -1    0    0  501    0  0.00000000000E+00  0.00000000000E+00  0.55104002431E+01  0.56904227293E+01  0.14200000000E+01 0.  1.
         -4   -1    0    0    0  501 -0.00000000000E+00 -0.00000000000E+00 -0.17652780530E+02  0.17709801253E+02  0.14200000000E+01 0. -1.
       1023    2    1    2    0    0  0.00000000000E+00  0.00000000000E+00 -0.12142380287E+02  0.23400223983E+02  0.20003326809E+02 0.  0.
        -11    1    3    3    0    0 -0.60771277977E+00 -0.99824984068E+01 -0.62080203257E+01  0.11771113197E+02  0.51100000000E-03 0. -1.
         11    1    3    3    0    0  0.60771277977E+00  0.99824984068E+01 -0.59343599611E+01  0.11629110786E+02  0.51100000000E-03 0.  1.
<mgrwt>
<rscale>  0 0.20003327E+02</rscale>
<asrwt>0</asrwt>
<pdfrwt beam="1">  1        4 0.86598799E-03 0.20003327E+02</pdfrwt>
<pdfrwt beam="2">  1       -4 0.27340465E-02 0.20003327E+02</pdfrwt>
<totfact> 0.12811395E+06</totfact>
</mgrwt>
</event>
<event>
 5    1  0.1154861E-006  0.2000126E+02  0.7818608E-02  0.1745303E+00
          4   -1    0    0  501    0  0.00000000000E+00  0.00000000000E+00  0.85194491734E+02  0.85206325011E+02  0.14200000000E+01 0.  1.
         -4   -1    0    0    0  501 -0.00000000000E+00 -0.00000000000E+00 -0.72816172994E+00  0.15958131172E+01  0.14200000000E+01 0. -1.
       1023    2    1    2    0    0  0.00000000000E+00  0.00000000000E+00  0.84466330004E+02  0.86802138128E+02  0.20001256941E+02 0.  0.
        -11    1    3    3    0    0 -0.44362212220E+01 -0.89628106632E+01  0.42132707017E+02  0.43303314360E+02  0.51100000000E-03 0.  1.
         11    1    3    3    0    0  0.44362212220E+01  0.89628106632E+01  0.42333622987E+02  0.43498823768E+02  0.51100000000E-03 0. -1.
<mgrwt>
<rscale>  0 0.20001257E+02</rscale>
<asrwt>0</asrwt>
<pdfrwt beam="1">  1        4 0.13174500E-01 0.20001257E+02</pdfrwt>
<pdfrwt beam="2">  1       -4 0.17967752E-03 0.20001257E+02</pdfrwt>
<totfact> 0.10192926E+06</totfact>
</mgrwt>
</event>
<event>
 5    1  0.1154861E-006  0.2000039E+02  0.7818608E-02  0.1745320E+00
         -4   -1    0    0    0  501 -0.00000000000E+00  0.00000000000E+00  0.44925143030E+02  0.44947579204E+02  0.14200000000E+01 0.  1.
          4   -1    0    0  501    0  0.00000000000E+00 -0.00000000000E+00 -0.19741352008E+01  0.24317914777E+01  0.14200000000E+01 0. -1.
       1023    2    1    2    0    0  0.00000000000E+00  0.00000000000E+00  0.42951007829E+02  0.47379370682E+02  0.20000392312E+02 0.  0.
        -11    1    3    3    0    0 -0.99224513034E+01 -0.12441025005E+01  0.21397222048E+02  0.23618720171E+02  0.51100000000E-03 0. -1.
         11    1    3    3    0    0  0.99224513034E+01  0.12441025005E+01  0.21553785781E+02  0.23760650510E+02  0.51100000000E-03 0.  1.
<mgrwt>
<rscale>  0 0.20000392E+02</rscale>
<asrwt>0</asrwt>
<pdfrwt beam="2">  1        4 0.34064333E-03 0.20000392E+02</pdfrwt>
<pdfrwt beam="1">  1       -4 0.69484900E-02 0.20000392E+02</pdfrwt>
<totfact> 0.11631404E+06</totfact>
</mgrwt>
</event>
<event>
 5    1  0.1154861E-006  0.2000075E+02  0.7818608E-02  0.1745313E+00
         -4   -1    0    0    0  501 -0.00000000000E+00  0.00000000000E+00  0.16758605482E+01  0.21965674533E+01  0.14200000000E+01 0. -1.
          4   -1    0    0  501    0  0.00000000000E+00 -0.00000000000E+00 -0.51119172400E+02  0.51138891138E+02  0.14200000000E+01 0.  1.
       1023    2    1    2    0    0  0.00000000000E+00  0.00000000000E+00 -0.49443311852E+02  0.53335458592E+02  0.20000751394E+02 0.  0.
        -11    1    3    3    0    0 -0.98349885939E+01  0.18103618094E+01 -0.24573103037E+02  0.26530017030E+02  0.51100000000E-03 0.  1.
         11    1    3    3    0    0  0.98349885939E+01 -0.18103618094E+01 -0.24870208815E+02  0.26805441561E+02  0.51100000000E-03 0. -1.
<mgrwt>
<rscale>  0 0.20000751E+02</rscale>
<asrwt>0</asrwt>
<pdfrwt beam="2">  1        4 0.79060583E-02 0.20000751E+02</pdfrwt>
<pdfrwt beam="1">  1       -4 0.29939594E-03 0.20000751E+02</pdfrwt>
<totfact> 0.11381319E+06</totfact>
</mgrwt>
</event>
<event>
 4    1  0.1154861E-006  0.2022951E+02  0.7818608E-02  0.1740802E+00
          4   -1    0    0  501    0  0.00000000000E+00  0.00000000000E+00  0.56382373258E+02  0.56400251898E+02  0.14200000000E+01 0. -1.
         -4   -1    0    0    0  501 -0.00000000000E+00 -0.00000000000E+00 -0.15157058666E+01  0.20769603449E+01  0.14200000000E+01 0.  1.
        -11    1    1    2    0    0 -0.45332798919E+01 -0.89608074510E+01  0.30928070854E+02  0.32517568540E+02  0.51100000000E-03 0.  1.
         11    1    1    2    0    0  0.45332798919E+01  0.89608074510E+01  0.23938596538E+02  0.25959643703E+02  0.51100000000E-03 0. -1.
<mgrwt>
<rscale>  0 0.20229512E+02</rscale>
<asrwt>0</asrwt>
<pdfrwt beam="1">  1        4 0.87187592E-02 0.20229512E+02</pdfrwt>
<pdfrwt beam="2">  1       -4 0.27773424E-03 0.20229512E+02</pdfrwt>
<totfact> 0.10923490E+06</totfact>
</mgrwt>
</event>
<event>
 5    1  0.1154861E-006  0.2000068E+02  0.7818608E-02  0.1745314E+00
          4   -1    0    0  501    0  0.00000000000E+00  0.00000000000E+00  0.12203633989E+01  0.18723479445E+01  0.14200000000E+01 0.  1.
         -4   -1    0    0    0  501 -0.00000000000E+00 -0.00000000000E+00 -0.64011081042E+02  0.64026829503E+02  0.14200000000E+01 0. -1.
       1023    2    1    2    0    0  0.00000000000E+00  0.00000000000E+00 -0.62790717643E+02  0.65899177447E+02  0.20000684140E+02 0.  0.
        -11    1    3    3    0    0  0.77312901584E+01  0.63427365947E+01 -0.31195314235E+02  0.32758980226E+02  0.51100000000E-03 0. -1.
         11    1    3    3    0    0 -0.77312901584E+01 -0.63427365947E+01 -0.31595403408E+02  0.33140197221E+02  0.51100000000E-03 0.  1.
<mgrwt>
<rscale>  0 0.20000684E+02</rscale>
<asrwt>0</asrwt>
<pdfrwt beam="1">  1        4 0.23911234E-03 0.20000684E+02</pdfrwt>
<pdfrwt beam="2">  1       -4 0.98992206E-02 0.20000684E+02</pdfrwt>
<totfact> 0.10897267E+06</totfact>
</mgrwt>
</event>
<event>
 5    1  0.1154861E-006  0.2000007E+02  0.7818608E-02  0.1745327E+00
         -4   -1    0    0    0  501 -0.00000000000E+00  0.00000000000E+00  0.55934382887E+02  0.55952404675E+02  0.14200000000E+01 0. -1.
          4   -1    0    0  501    0  0.00000000000E+00 -0.00000000000E+00 -0.14845769329E+01  0.20543535893E+01  0.14200000000E+01 0.  1.
       1023    2    1    2    0    0  0.00000000000E+00  0.00000000000E+00  0.54449805954E+02  0.58006758265E+02  0.20000065898E+02 0.  0.
        -11    1    3    3    0    0 -0.90768921979E+01  0.41965037221E+01  0.27205827360E+02  0.28985473225E+02  0.51100000000E-03 0. -1.
         11    1    3    3    0    0  0.90768921979E+01 -0.41965037221E+01  0.27243978594E+02  0.29021285040E+02  0.51100000000E-03 0.  1.
<mgrwt>
<rscale>  0 0.20000066E+02</rscale>
<asrwt>0</asrwt>
<pdfrwt beam="2">  1        4 0.27361174E-03 0.20000066E+02</pdfrwt>
<pdfrwt beam="1">  1       -4 0.86505042E-02 0.20000066E+02</pdfrwt>
<totfact> 0.11195898E+06</totfact>
</mgrwt>
</event>
<event>
 5    1  0.1154861E-006  0.2000073E+02  0.7818608E-02  0.1745314E+00
         -4   -1    0    0    0  501 -0.00000000000E+00  0.00000000000E+00  0.60704085196E+00  0.15443116900E+01  0.14200000000E+01 0. -1.
          4   -1    0    0  501    0  0.00000000000E+00 -0.00000000000E+00 -0.92026384955E+02  0.92037339857E+02  0.14200000000E+01 0.  1.
       1023    2    1    2    0    0  0.00000000000E+00  0.00000000000E+00 -0.91419344103E+02  0.93581651547E+02  0.20000725736E+02 0.  0.
        -11    1    3    3    0    0  0.22380823893E+01  0.97465111816E+01 -0.45422604926E+02  0.46510391651E+02  0.51100000000E-03 0.  1.
         11    1    3    3    0    0 -0.22380823893E+01 -0.97465111816E+01 -0.45996739177E+02  0.47071259896E+02  0.51100000000E-03 0. -1.
<mgrwt>
<rscale>  0 0.20000726E+02</rscale>
<asrwt>0</asrwt>
<pdfrwt beam="2">  1        4 0.14230839E-01 0.20000726E+02</pdfrwt>
<pdfrwt beam="1">  1       -4 0.16633142E-03 0.20000726E+02</pdfrwt>
<totfact> 0.99872257E+05</totfact>
</mgrwt>
</event>
<event>
 5    1  0.1215436E-006  0.2000112E+02  0.7818608E-02  0.1745306E+00
         -4   -1    0    0    0  501 -0.00000000000E+00  0.00000000000E+00  0.17418051889E+02  0.17475838510E+02  0.14200000000E+01 0.  1.
          4   -1    0    0  501    0  0.00000000000E+00 -0.00000000000E+00 -0.55855345957E+01  0.57632106261E+01  0.14200000000E+01 0. -1.
       1023    2    1    2    0    0  0.00000000000E+00  0.00000000000E+00  0.11832517294E+02  0.23239049136E+02  0.20001123449E+02 0.  0.
        -11    1    3    3    0    0 -0.62202459831E+01  0.78305898753E+01  0.58692537105E+01  0.11595591286E+02  0.51100000000E-03 0.  1.
         11    1    3    3    0    0  0.62202459831E+01 -0.78305898753E+01  0.59632635830E+01  0.11643457850E+02  0.51100000000E-03 0. -1.
<mgrwt>
<rscale>  0 0.20001123E+02</rscale>
<asrwt>0</asrwt>
<pdfrwt beam="2">  1        4 0.87742551E-03 0.20001123E+02</pdfrwt>
<pdfrwt beam="1">  1       -4 0.26978129E-02 0.20001123E+02</pdfrwt>
<totfact> 0.12823451E+06</totfact>
</mgrwt>
</event>
<event>
 5    1  0.1167858E-006  0.2000190E+02  0.7818608E-02  0.1745290E+00
          4   -1    0    0  501    0  0.00000000000E+00  0.00000000000E+00  0.65581534254E+01  0.67101249132E+01  0.14200000000E+01 0. -1.
         -4   -1    0    0    0  501 -0.00000000000E+00 -0.00000000000E+00 -0.14890277141E+02  0.14957832508E+02  0.14200000000E+01 0.  1.
       1023    2    1    2    0    0  0.00000000000E+00  0.00000000000E+00 -0.83321237161E+01  0.21667957422E+02  0.20001902240E+02 0.  0.
        -11    1    3    3    0    0  0.99943163120E+01 -0.36012322691E+00 -0.41069675831E+01  0.10811254796E+02  0.51100000000E-03 0. -1.
         11    1    3    3    0    0 -0.99943163120E+01  0.36012322691E+00 -0.42251561330E+01  0.10856702625E+02  0.51100000000E-03 0.  1.
<mgrwt>
<rscale>  0 0.20001902E+02</rscale>
<asrwt>0</asrwt>
<pdfrwt beam="1">  1        4 0.10258334E-02 0.20001902E+02</pdfrwt>
<pdfrwt beam="2">  1       -4 0.23076985E-02 0.20001902E+02</pdfrwt>
<totfact> 0.12913045E+06</totfact>
</mgrwt>
</event>
<event>
 5    1  0.1154861E-006  0.2000047E+02  0.7818608E-02  0.1745319E+00
         -4   -1    0    0    0  501 -0.00000000000E+00  0.00000000000E+00  0.10481165236E+01  0.17649215980E+01  0.14200000000E+01 0. -1.
          4   -1    0    0  501    0  0.00000000000E+00 -0.00000000000E+00 -0.70375043958E+02  0.70389368601E+02  0.14200000000E+01 0.  1.
       1023    2    1    2    0    0  0.00000000000E+00  0.00000000000E+00 -0.69326927434E+02  0.72154290199E+02  0.20000468161E+02 0.  0.
        -11    1    3    3    0    0  0.40476282335E+01  0.91444727036E+01 -0.34654582630E+02  0.36068612018E+02  0.51100000000E-03 0. -1.
         11    1    3    3    0    0 -0.40476282335E+01 -0.91444727036E+01 -0.34672344804E+02  0.36085678181E+02  0.51100000000E-03 0.  1.
<mgrwt>
<rscale>  0 0.20000468E+02</rscale>
<asrwt>0</asrwt>
<pdfrwt beam="2">  1        4 0.10883168E-01 0.20000468E+02</pdfrwt>
<pdfrwt beam="1">  1       -4 0.21748950E-03 0.20000468E+02</pdfrwt>
<totfact> 0.10674898E+06</totfact>
</mgrwt>
</event>
<event>
 5    1  0.1154861E-006  0.2000377E+02  0.7818608E-02  0.1745253E+00
          4   -1    0    0  501    0  0.00000000000E+00  0.00000000000E+00  0.48010505225E+00  0.14989665978E+01  0.14200000000E+01 0.  1.
         -4   -1    0    0    0  501 -0.00000000000E+00 -0.00000000000E+00 -0.10006910769E+03  0.10007918222E+03  0.14200000000E+01 0. -1.
       1023    2    1    2    0    0  0.00000000000E+00  0.00000000000E+00 -0.99589002635E+02  0.10157814882E+03  0.20003771417E+02 0.  0.
        -11    1    3    3    0    0 -0.98269843360E+01 -0.18615505290E+01 -0.49529378208E+02  0.50529143051E+02  0.51100000000E-03 0. -1.
         11    1    3    3    0    0  0.98269843360E+01  0.18615505290E+01 -0.50059624427E+02  0.51049005765E+02  0.51100000000E-03 0.  1.
<mgrwt>
<rscale>  0 0.20003771E+02</rscale>
<asrwt>0</asrwt>
<pdfrwt beam="1">  1        4 0.15301133E-03 0.20003771E+02</pdfrwt>
<pdfrwt beam="2">  1       -4 0.15474388E-01 0.20003771E+02</pdfrwt>
<totfact> 0.97528738E+05</totfact>
</mgrwt>
</event>
<event>
 5    1  0.1154861E-006  0.2000579E+02  0.7818608E-02  0.1745213E+00
         -4   -1    0    0    0  501 -0.00000000000E+00  0.00000000000E+00  0.25699559093E+02  0.25738759441E+02  0.14200000000E+01 0.  1.
          4   -1    0    0  501    0  0.00000000000E+00 -0.00000000000E+00 -0.37202039630E+01  0.39819991872E+01  0.14200000000E+01 0. -1.
       1023    2    1    2    0    0  0.00000000000E+00  0.00000000000E+00  0.21979355130E+02  0.29720758628E+02  0.20005785201E+02 0.  0.
        -11    1    3    3    0    0  0.88666768545E+01  0.46301266076E+01  0.10926138085E+02  0.14813390043E+02  0.51100000000E-03 0.  1.
         11    1    3    3    0    0 -0.88666768545E+01 -0.46301266076E+01  0.11053217044E+02  0.14907368585E+02  0.51100000000E-03 0. -1.
<mgrwt>
<rscale>  0 0.20005785E+02</rscale>
<asrwt>0</asrwt>
<pdfrwt beam="2">  1        4 0.59549260E-03 0.20005785E+02</pdfrwt>
<pdfrwt beam="1">  1       -4 0.39769317E-02 0.20005785E+02</pdfrwt>
<totfact> 0.12463023E+06</totfact>
</mgrwt>
</event>
<event>
 5    1  0.1154861E-006  0.2000330E+02  0.7818608E-02  0.1745263E+00
          4   -1    0    0  501    0  0.00000000000E+00  0.00000000000E+00  0.82001201545E+01  0.83221614109E+01  0.14200000000E+01 0.  1.
         -4   -1    0    0    0  501 -0.00000000000E+00 -0.00000000000E+00 -0.11944448978E+02  0.12028560238E+02  0.14200000000E+01 0. -1.
       1023    2    1    2    0    0  0.00000000000E+00  0.00000000000E+00 -0.37443288237E+01  0.20350721649E+02  0.20003296560E+02 0.  0.
        -11    1    3    3    0    0 -0.31477333923E+01  0.94928531668E+01 -0.19763207938E+01  0.10194524555E+02  0.51100000000E-03 0.  1.
         11    1    3    3    0    0  0.31477333923E+01 -0.94928531668E+01 -0.17680080299E+01  0.10156197094E+02  0.51100000000E-03 0. -1.
<mgrwt>
<rscale>  0 0.20003297E+02</rscale>
<asrwt>0</asrwt>
<pdfrwt beam="1">  1        4 0.12774148E-02 0.20003297E+02</pdfrwt>
<pdfrwt beam="2">  1       -4 0.18534654E-02 0.20003297E+02</pdfrwt>
<totfact> 0.12988804E+06</totfact>
</mgrwt>
</event>
<event>
 5    1  0.1197172E-006  0.2000134E+02  0.7818608E-02  0.1745301E+00
         -4   -1    0    0    0  501 -0.00000000000E+00  0.00000000000E+00  0.31408735896E+02  0.31440818860E+02  0.14200000000E+01 0. -1.
          4   -1    0    0  501    0  0.00000000000E+00 -0.00000000000E+00 -0.29904574227E+01  0.33104736212E+01  0.14200000000E+01 0. -1.
       1023    2    1    2    0    0  0.00000000000E+00  0.00000000000E+00  0.28418278473E+02  0.34751292481E+02  0.20001344398E+02 0.  0.
        -11    1    3    3    0    0 -0.89439069160E+00  0.99605892813E+01  0.14231834624E+02  0.17394205661E+02  0.51100000000E-03 0.  1.
         11    1    3    3    0    0  0.89439069160E+00 -0.99605892813E+01  0.14186443849E+02  0.17357086820E+02  0.51100000000E-03 0. -1.
<mgrwt>
<rscale>  0 0.20001344E+02</rscale>
<asrwt>0</asrwt>
<pdfrwt beam="2">  1        4 0.48715493E-03 0.20001344E+02</pdfrwt>
<pdfrwt beam="1">  1       -4 0.48591977E-02 0.20001344E+02</pdfrwt>
<totfact> 0.12212594E+06</totfact>
</mgrwt>
</event>
<event>
 5    1  0.1154861E-006  0.2000677E+02  0.7818608E-02  0.1745193E+00
         -4   -1    0    0    0  501 -0.00000000000E+00  0.00000000000E+00  0.18254016757E+02  0.18309165130E+02  0.14200000000E+01 0.  1.
          4   -1    0    0  501    0  0.00000000000E+00 -0.00000000000E+00 -0.53253637014E+01  0.55114334389E+01  0.14200000000E+01 0. -1.
       1023    2    1    2    0    0  0.00000000000E+00  0.00000000000E+00  0.12928653056E+02  0.23820598569E+02  0.20006770013E+02 0.  0.
        -11    1    3    3    0    0 -0.83676647350E+01  0.54780847278E+01  0.62247591181E+01  0.11780273840E+02  0.51100000000E-03 0.  1.
         11    1    3    3    0    0  0.83676647350E+01 -0.54780847278E+01  0.67038939377E+01  0.12040324729E+02  0.51100000000E-03 0. -1.
<mgrwt>
<rscale>  0 0.20006770E+02</rscale>
<asrwt>0</asrwt>
<pdfrwt beam="2">  1        4 0.83784196E-03 0.20006770E+02</pdfrwt>
<pdfrwt beam="1">  1       -4 0.28268655E-02 0.20006770E+02</pdfrwt>
<totfact> 0.12783074E+06</totfact>
</mgrwt>
</event>
<event>
 4    1  0.1154861E-006  0.2001515E+02  0.7818608E-02  0.1745027E+00
         -4   -1    0    0    0  501 -0.00000000000E+00  0.00000000000E+00  0.30356522335E+01  0.33513556187E+01  0.14200000000E+01 0.  1.
          4   -1    0    0  501    0  0.00000000000E+00 -0.00000000000E+00 -0.31028278369E+02  0.31060754314E+02  0.14200000000E+01 0. -1.
        -11    1    1    2    0    0  0.66088639708E+01 -0.75048621863E+01 -0.13327090262E+02  0.16661673822E+02  0.51100000000E-03 0. -1.
         11    1    1    2    0    0 -0.66088639708E+01  0.75048621863E+01 -0.14665535873E+02  0.17750436111E+02  0.51100000000E-03 0.  1.
<mgrwt>
<rscale>  0 0.20015149E+02</rscale>
<asrwt>0</asrwt>
<pdfrwt beam="2">  1        4 0.48003641E-02 0.20015149E+02</pdfrwt>
<pdfrwt beam="1">  1       -4 0.49380647E-03 0.20015149E+02</pdfrwt>
<totfact> 0.12212281E+06</totfact>
</mgrwt>
</event>
<event>
 5    1  0.1154861E-006  0.2000042E+02  0.7818608E-02  0.1745320E+00
          4   -1    0    0  501    0  0.00000000000E+00  0.00000000000E+00  0.23181873040E+01  0.27185276119E+01  0.14200000000E+01 0.  1.
         -4   -1    0    0    0  501 -0.00000000000E+00 -0.00000000000E+00 -0.39295917649E+02  0.39321565888E+02  0.14200000000E+01 0. -1.
       1023    2    1    2    0    0  0.00000000000E+00  0.00000000000E+00 -0.36977730345E+02  0.42040093500E+02  0.20000422996E+02 0.  0.
        -11    1    3    3    0    0 -0.75950649402E+01  0.65052623342E+01 -0.18547579399E+02  0.21071690756E+02  0.51100000000E-03 0. -1.
         11    1    3    3    0    0  0.75950649402E+01 -0.65052623342E+01 -0.18430150945E+02  0.20968402744E+02  0.51100000000E-03 0.  1.
<mgrwt>
<rscale>  0 0.20000423E+02</rscale>
<asrwt>0</asrwt>
<pdfrwt beam="1">  1        4 0.38941258E-03 0.20000423E+02</pdfrwt>
<pdfrwt beam="2">  1       -4 0.60782937E-02 0.20000423E+02</pdfrwt>
<totfact> 0.11868190E+06</totfact>
</mgrwt>
</event>
<event>
 4    1  0.1154861E-006  0.2004265E+02  0.7818608E-02  0.1744481E+00
         -4   -1    0    0    0  501 -0.00000000000E+00  0.00000000000E+00  0.89086987561E+01  0.90211592120E+01  0.14200000000E+01 0.  1.
          4   -1    0    0  501    0  0.00000000000E+00 -0.00000000000E+00 -0.11044000240E+02  0.11134915416E+02  0.14200000000E+01 0. -1.
        -11    1    1    2    0    0  0.95823923671E+00  0.99711249406E+01 -0.13615419840E+01  0.10109171670E+02  0.51100000000E-03 0.  1.
         11    1    1    2    0    0 -0.95823923671E+00 -0.99711249406E+01 -0.77375950034E+00  0.10046902958E+02  0.51100000000E-03 0. -1.
<mgrwt>
<rscale>  0 0.20042650E+02</rscale>
<asrwt>0</asrwt>
<pdfrwt beam="2">  1        4 0.17147212E-02 0.20042650E+02</pdfrwt>
<pdfrwt beam="1">  1       -4 0.13862133E-02 0.20042650E+02</pdfrwt>
<totfact> 0.12948329E+06</totfact>
</mgrwt>
</event>
<event>
 5    1  0.1154861E-006  0.2000361E+02  0.7818608E-02  0.1745256E+00
         -4   -1    0    0    0  501 -0.00000000000E+00  0.00000000000E+00  0.19215578434E+01  0.23893062896E+01  0.14200000000E+01 0. -1.
          4   -1    0    0  501    0  0.00000000000E+00 -0.00000000000E+00 -0.45931241722E+02  0.45953186681E+02  0.14200000000E+01 0.  1.
       1023    2    1    2    0    0  0.00000000000E+00  0.00000000000E+00 -0.44009683878E+02  0.48342492970E+02  0.20003608462E+02 0.  0.
        -11    1    3    3    0    0  0.67853404138E+01  0.73481399534E+01 -0.21982916501E+02  0.24151286165E+02  0.51100000000E-03 0. -1.
         11    1    3    3    0    0 -0.67853404138E+01 -0.73481399534E+01 -0.22026767378E+02  0.24191206805E+02  0.51100000000E-03 0.  1.
<mgrwt>
<rscale>  0 0.20003608E+02</rscale>
<asrwt>0</asrwt>
<pdfrwt beam="2">  1        4 0.71040129E-02 0.20003608E+02</pdfrwt>
<pdfrwt beam="1">  1       -4 0.33329304E-03 0.20003608E+02</pdfrwt>
<totfact> 0.11586275E+06</totfact>
</mgrwt>
</event>
<event>
 5    1  0.1154861E-006  0.2000013E+02  0.7818608E-02  0.1745326E+00
         -4   -1    0    0    0  501 -0.00000000000E+00  0.00000000000E+00  0.21912349393E+02  0.21958311773E+02  0.14200000000E+01 0.  1.
          4   -1    0    0  501    0  0.00000000000E+00 -0.00000000000E+00 -0.44011293200E+01  0.46245366569E+01  0.14200000000E+01 0. -1.
       1023    2    1    2    0    0  0.00000000000E+00  0.00000000000E+00  0.17511220073E+02  0.26582848430E+02  0.20000125055E+02 0.  0.
        -11    1    3    3    0    0 -0.91780609066E+01 -0.39704048019E+01  0.87313193792E+01  0.13275422956E+02  0.51100000000E-03 0.  1.
         11    1    3    3    0    0  0.91780609066E+01  0.39704048019E+01  0.87799006943E+01  0.13307425474E+02  0.51100000000E-03 0. -1.
<mgrwt>
<rscale>  0 0.20000125E+02</rscale>
<asrwt>0</asrwt>
<pdfrwt beam="2">  1        4 0.69781757E-03 0.20000125E+02</pdfrwt>
<pdfrwt beam="1">  1       -4 0.33918514E-02 0.20000125E+02</pdfrwt>
<totfact> 0.12638051E+06</totfact>
</mgrwt>
</event>
<event>
 4    1  0.1154861E-006  0.2004239E+02  0.7818608E-02  0.1744486E+00
          4   -1    0    0  501    0  0.00000000000E+00  0.00000000000E+00  0.40295816113E+02  0.40320828317E+02  0.14200000000E+01 0. -1.
         -4   -1    0    0    0  501 -0.00000000000E+00 -0.00000000000E+00 -0.22619355366E+01  0.26707213205E+01  0.14200000000E+01 0.  1.
        -11    1    1    2    0    0 -0.21134344303E+01  0.97806353422E+01  0.17848175481E+02  0.20461788804E+02  0.51100000000E-03 0. -1.
         11    1    1    2    0    0  0.21134344303E+01 -0.97806353422E+01  0.20185705095E+02  0.22529760834E+02  0.51100000000E-03 0.  1.
<mgrwt>
<rscale>  0 0.20042387E+02</rscale>
<asrwt>0</asrwt>
<pdfrwt beam="1">  1        4 0.62327259E-02 0.20042387E+02</pdfrwt>
<pdfrwt beam="2">  1       -4 0.38135913E-03 0.20042387E+02</pdfrwt>
<totfact> 0.11775021E+06</totfact>
</mgrwt>
</event>
<event>
 5    1  0.1154861E-006  0.2000021E+02  0.7818608E-02  0.1745324E+00
         -4   -1    0    0    0  501 -0.00000000000E+00  0.00000000000E+00  0.24164164490E+01  0.28027608629E+01  0.14200000000E+01 0. -1.
          4   -1    0    0  501    0  0.00000000000E+00 -0.00000000000E+00 -0.37920398762E+02  0.37946976721E+02  0.14200000000E+01 0.  1.
       1023    2    1    2    0    0  0.00000000000E+00  0.00000000000E+00 -0.35503982313E+02  0.40749737584E+02  0.20000208826E+02 0.  0.
        -11    1    3    3    0    0 -0.93059979229E+01 -0.36606662412E+01 -0.17759432544E+02  0.20381352242E+02  0.51100000000E-03 0.  1.
         11    1    3    3    0    0  0.93059979229E+01  0.36606662412E+01 -0.17744549769E+02  0.20368385342E+02  0.51100000000E-03 0. -1.
<mgrwt>
<rscale>  0 0.20000209E+02</rscale>
<asrwt>0</asrwt>
<pdfrwt beam="2">  1        4 0.58656704E-02 0.20000209E+02</pdfrwt>
<pdfrwt beam="1">  1       -4 0.40351966E-03 0.20000209E+02</pdfrwt>
<totfact> 0.11927604E+06</totfact>
</mgrwt>
</event>
<event>
 5    1  0.1154861E-006  0.2000459E+02  0.7818608E-02  0.1745237E+00
          4   -1    0    0  501    0  0.00000000000E+00  0.00000000000E+00  0.23247608549E+02  0.23290936075E+02  0.14200000000E+01 0.  1.
         -4   -1    0    0    0  501 -0.00000000000E+00 -0.00000000000E+00 -0.41376034875E+01  0.43744899840E+01  0.14200000000E+01 0. -1.
       1023    2    1    2    0    0  0.00000000000E+00  0.00000000000E+00  0.19110005061E+02  0.27665426059E+02  0.20004587113E+02 0.  0.
        -11    1    3    3    0    0  0.65389834941E+01  0.75684606038E+01  0.96619030484E+01  0.13906554995E+02  0.51100000000E-03 0.  1.
         11    1    3    3    0    0 -0.65389834941E+01 -0.75684606038E+01  0.94481020130E+01  0.13758871064E+02  0.51100000000E-03 0. -1.
<mgrwt>
<rscale>  0 0.20004587E+02</rscale>
<asrwt>0</asrwt>
<pdfrwt beam="1">  1        4 0.35981101E-02 0.20004587E+02</pdfrwt>
<pdfrwt beam="2">  1       -4 0.65810930E-03 0.20004587E+02</pdfrwt>
<totfact> 0.12573655E+06</totfact>
</mgrwt>
</event>
<event>
 5    1  0.1167259E-006  0.2000170E+02  0.7818608E-02  0.1745294E+00
          4   -1    0    0  501    0  0.00000000000E+00  0.00000000000E+00  0.14118050273E+02  0.14189282699E+02  0.14200000000E+01 0. -1.
         -4   -1    0    0    0  501 -0.00000000000E+00 -0.00000000000E+00 -0.69230325884E+01  0.70671621052E+01  0.14200000000E+01 0.  1.
       1023    2    1    2    0    0  0.00000000000E+00  0.00000000000E+00  0.71950176848E+01  0.21256444804E+02  0.20001704083E+02 0.  0.
        -11    1    3    3    0    0 -0.84964893037E+01  0.52736401695E+01  0.37295195050E+01  0.10672906217E+02  0.51100000000E-03 0.  1.
         11    1    3    3    0    0  0.84964893037E+01 -0.52736401695E+01  0.34654981798E+01  0.10583538587E+02  0.51100000000E-03 0. -1.
<mgrwt>
<rscale>  0 0.20001704E+02</rscale>
<asrwt>0</asrwt>
<pdfrwt beam="1">  1        4 0.21885740E-02 0.20001704E+02</pdfrwt>
<pdfrwt beam="2">  1       -4 0.10816482E-02 0.20001704E+02</pdfrwt>
<totfact> 0.12937398E+06</totfact>
</mgrwt>
</event>
<event>
 5    1  0.1154861E-006  0.2000389E+02  0.7818608E-02  0.1745251E+00
          4   -1    0    0  501    0  0.00000000000E+00  0.00000000000E+00  0.50655232221E+02  0.50675131489E+02  0.14200000000E+01 0. -1.
         -4   -1    0    0    0  501 -0.00000000000E+00 -0.00000000000E+00 -0.16966507378E+01  0.22124700509E+01  0.14200000000E+01 0.  1.
       1023    2    1    2    0    0  0.00000000000E+00  0.00000000000E+00  0.48958581484E+02  0.52887601540E+02  0.20003892014E+02 0.  0.
        -11    1    3    3    0    0  0.16741329275E+01  0.98596400931E+01  0.24072274139E+02  0.26067021431E+02  0.51100000000E-03 0. -1.
         11    1    3    3    0    0 -0.16741329275E+01 -0.98596400931E+01  0.24886307345E+02  0.26820580108E+02  0.51100000000E-03 0.  1.
<mgrwt>
<rscale>  0 0.20003892E+02</rscale>
<asrwt>0</asrwt>
<pdfrwt beam="1">  1        4 0.78343205E-02 0.20003892E+02</pdfrwt>
<pdfrwt beam="2">  1       -4 0.30223236E-03 0.20003892E+02</pdfrwt>
<totfact> 0.11395989E+06</totfact>
</mgrwt>
</event>
<event>
 5    1  0.1154861E-006  0.2000041E+02  0.7818608E-02  0.1745320E+00
          4   -1    0    0  501    0  0.00000000000E+00  0.00000000000E+00  0.35502612457E+02  0.35530999019E+02  0.14200000000E+01 0. -1.
         -4   -1    0    0    0  501 -0.00000000000E+00 -0.00000000000E+00 -0.26063648168E+01  0.29680865146E+01  0.14200000000E+01 0.  1.
       1023    2    1    2    0    0  0.00000000000E+00  0.00000000000E+00  0.32896247640E+02  0.38499085534E+02  0.20000411948E+02 0.  0.
        -11    1    3    3    0    0  0.67948464449E+01  0.73371505809E+01  0.16486737912E+02  0.19282537284E+02  0.51100000000E-03 0. -1.
         11    1    3    3    0    0 -0.67948464449E+01 -0.73371505809E+01  0.16409509728E+02  0.19216548250E+02  0.51100000000E-03 0.  1.
<mgrwt>
<rscale>  0 0.20000412E+02</rscale>
<asrwt>0</asrwt>
<pdfrwt beam="1">  1        4 0.54919486E-02 0.20000412E+02</pdfrwt>
<pdfrwt beam="2">  1       -4 0.43098754E-03 0.20000412E+02</pdfrwt>
<totfact> 0.12032548E+06</totfact>
</mgrwt>
</event>
<event>
 5    1  0.1154861E-006  0.2000022E+02  0.7818608E-02  0.1745324E+00
          4   -1    0    0  501    0  0.00000000000E+00  0.00000000000E+00  0.54412037715E+00  0.15206797772E+01  0.14200000000E+01 0.  1.
         -4   -1    0    0    0  501 -0.00000000000E+00 -0.00000000000E+00 -0.95879532751E+02  0.95890047453E+02  0.14200000000E+01 0. -1.
       1023    2    1    2    0    0  0.00000000000E+00  0.00000000000E+00 -0.95335412374E+02  0.97410727230E+02  0.20000223175E+02 0.  0.
        -11    1    3    3    0    0 -0.49373182731E+01 -0.86961621065E+01 -0.47456280922E+02  0.48498442721E+02  0.51100000000E-03 0. -1.
         11    1    3    3    0    0  0.49373182731E+01  0.86961621065E+01 -0.47879131451E+02  0.48912284509E+02  0.51100000000E-03 0.  1.
<mgrwt>
<rscale>  0 0.20000223E+02</rscale>
<asrwt>0</asrwt>
<pdfrwt beam="1">  1        4 0.15963968E-03 0.20000223E+02</pdfrwt>
<pdfrwt beam="2">  1       -4 0.14826619E-01 0.20000223E+02</pdfrwt>
<totfact> 0.98753899E+05</totfact>
</mgrwt>
</event>
<event>
 5    1  0.1154861E-006  0.2000059E+02  0.7818608E-02  0.1745316E+00
          4   -1    0    0  501    0  0.00000000000E+00  0.00000000000E+00  0.30671643843E+01  0.33799256442E+01  0.14200000000E+01 0. -1.
         -4   -1    0    0    0  501 -0.00000000000E+00 -0.00000000000E+00 -0.30693603457E+02  0.30726433135E+02  0.14200000000E+01 0.  1.
       1023    2    1    2    0    0  0.00000000000E+00  0.00000000000E+00 -0.27626439073E+02  0.34106358779E+02  0.20000589324E+02 0.  0.
        -11    1    3    3    0    0  0.77836186261E+01  0.62783796443E+01 -0.13717919744E+02  0.16975985751E+02  0.51100000000E-03 0.  1.
         11    1    3    3    0    0 -0.77836186261E+01 -0.62783796443E+01 -0.13908519329E+02  0.17130373027E+02  0.51100000000E-03 0. -1.
<mgrwt>
<rscale>  0 0.20000589E+02</rscale>
<asrwt>0</asrwt>
<pdfrwt beam="1">  1        4 0.49845538E-03 0.20000589E+02</pdfrwt>
<pdfrwt beam="2">  1       -4 0.47486766E-02 0.20000589E+02</pdfrwt>
<totfact> 0.12245516E+06</totfact>
</mgrwt>
</event>
<event>
 5    1  0.1164253E-006  0.2000133E+02  0.7818608E-02  0.1745302E+00
          4   -1    0    0  501    0  0.00000000000E+00  0.00000000000E+00  0.23995717650E+01  0.27882511822E+01  0.14200000000E+01 0.  1.
         -4   -1    0    0    0  501 -0.00000000000E+00 -0.00000000000E+00 -0.38154054922E+02  0.38180470231E+02  0.14200000000E+01 0. -1.
       1023    2    1    2    0    0  0.00000000000E+00  0.00000000000E+00 -0.35754483157E+02  0.40968721413E+02  0.20001326664E+02 0.  0.
        -11    1    3    3    0    0 -0.56060613244E+01  0.82809628113E+01 -0.18092051225E+02  0.20671830748E+02  0.51100000000E-03 0.  1.
         11    1    3    3    0    0  0.56060613244E+01 -0.82809628113E+01 -0.17662431932E+02  0.20296890665E+02  0.51100000000E-03 0. -1.
<mgrwt>
<rscale>  0 0.20001327E+02</rscale>
<asrwt>0</asrwt>
<pdfrwt beam="1">  1        4 0.40109528E-03 0.20001327E+02</pdfrwt>
<pdfrwt beam="2">  1       -4 0.59017846E-02 0.20001327E+02</pdfrwt>
<totfact> 0.11916159E+06</totfact>
</mgrwt>
</event>
<event>
 5    1  0.1154861E-006  0.2000030E+02  0.7818608E-02  0.1745322E+00
         -4   -1    0    0    0  501 -0.00000000000E+00  0.00000000000E+00  0.61338323156E+01  0.62960542307E+01  0.14200000000E+01 0. -1.
          4   -1    0    0  501    0  0.00000000000E+00 -0.00000000000E+00 -0.15896443363E+02  0.15959740336E+02  0.14200000000E+01 0.  1.
       1023    2    1    2    0    0  0.00000000000E+00  0.00000000000E+00 -0.97626110474E+01  0.22255794567E+02  0.20000295431E+02 0.  0.
        -11    1    3    3    0    0 -0.99502840615E+01 -0.99678362527E+00 -0.49202298487E+01  0.11144971625E+02  0.51100000000E-03 0.  1.
         11    1    3    3    0    0  0.99502840615E+01  0.99678362527E+00 -0.48423811987E+01  0.11110822941E+02  0.51100000000E-03 0. -1.
<mgrwt>
<rscale>  0 0.20000295E+02</rscale>
<asrwt>0</asrwt>
<pdfrwt beam="2">  1        4 0.24629543E-02 0.20000295E+02</pdfrwt>
<pdfrwt beam="1">  1       -4 0.96101412E-03 0.20000295E+02</pdfrwt>
<totfact> 0.12881016E+06</totfact>
</mgrwt>
</event>
<event>
 5    1  0.1154861E-006  0.2000980E+02  0.7818608E-02  0.1745133E+00
          4   -1    0    0  501    0  0.00000000000E+00  0.00000000000E+00  0.11552700033E+02  0.11639642522E+02  0.14200000000E+01 0.  1.
         -4   -1    0    0    0  501 -0.00000000000E+00 -0.00000000000E+00 -0.84858311256E+01  0.86038206566E+01  0.14200000000E+01 0. -1.
       1023    2    1    2    0    0  0.00000000000E+00  0.00000000000E+00  0.30668689073E+01  0.20243463179E+02  0.20009800513E+02 0.  0.
        -11    1    3    3    0    0  0.77972934944E+00  0.99699326149E+01  0.12290982749E+01  0.10075624895E+02  0.51100000000E-03 0. -1.
         11    1    3    3    0    0 -0.77972934944E+00 -0.99699326149E+01  0.18377706324E+01  0.10167838284E+02  0.51100000000E-03 0.  1.
<mgrwt>
<rscale>  0 0.20009801E+02</rscale>
<asrwt>0</asrwt>
<pdfrwt beam="1">  1        4 0.17931025E-02 0.20009801E+02</pdfrwt>
<pdfrwt beam="2">  1       -4 0.13212765E-02 0.20009801E+02</pdfrwt>
<totfact> 0.12986560E+06</totfact>
</mgrwt>
</event>
<event>
 4    1  0.1154861E-006  0.2001305E+02  0.7818608E-02  0.1745069E+00
         -4   -1    0    0    0  501 -0.00000000000E+00  0.00000000000E+00  0.36849461808E+01  0.39490794314E+01  0.14200000000E+01 0.  1.
          4   -1    0    0  501    0  0.00000000000E+00 -0.00000000000E+00 -0.25948475571E+02  0.25987300445E+02  0.14200000000E+01 0. -1.
        -11    1    1    2    0    0 -0.58264433180E+01  0.81272728625E+01 -0.11672173340E+02  0.15370089026E+02  0.51100000000E-03 0. -1.
         11    1    1    2    0    0  0.58264433180E+01 -0.81272728625E+01 -0.10591356049E+02  0.14566290851E+02  0.51100000000E-03 0.  1.
<mgrwt>
<rscale>  0 0.20013048E+02</rscale>
<asrwt>0</asrwt>
<pdfrwt beam="2">  1        4 0.40153775E-02 0.20013048E+02</pdfrwt>
<pdfrwt beam="1">  1       -4 0.59021929E-03 0.20013048E+02</pdfrwt>
<totfact> 0.12442562E+06</totfact>
</mgrwt>
</event>
<event>
 5    1  0.1154861E-006  0.2000045E+02  0.7818608E-02  0.1745319E+00
         -4   -1    0    0    0  501 -0.00000000000E+00  0.00000000000E+00  0.32348855120E+01  0.35328294999E+01  0.14200000000E+01 0.  1.
          4   -1    0    0  501    0  0.00000000000E+00 -0.00000000000E+00 -0.29237467408E+02  0.29271930248E+02  0.14200000000E+01 0. -1.
       1023    2    1    2    0    0  0.00000000000E+00  0.00000000000E+00 -0.26002581896E+02  0.32804759748E+02  0.20000449916E+02 0.  0.
        -11    1    3    3    0    0  0.58331963509E+01 -0.81225496110E+01 -0.12919164528E+02  0.16337282645E+02  0.51100000000E-03 0. -1.
         11    1    3    3    0    0 -0.58331963509E+01  0.81225496110E+01 -0.13083417368E+02  0.16467477103E+02  0.51100000000E-03 0.  1.
<mgrwt>
<rscale>  0 0.20000450E+02</rscale>
<asrwt>0</asrwt>
<pdfrwt beam="2">  1        4 0.45236415E-02 0.20000450E+02</pdfrwt>
<pdfrwt beam="1">  1       -4 0.52324447E-03 0.20000450E+02</pdfrwt>
<totfact> 0.12311001E+06</totfact>
</mgrwt>
</event>
<event>
 5    1  0.1154861E-006  0.2000750E+02  0.7818608E-02  0.1745179E+00
          4   -1    0    0  501    0  0.00000000000E+00  0.00000000000E+00  0.30709501984E+01  0.33833615120E+01  0.14200000000E+01 0.  1.
         -4   -1    0    0    0  501 -0.00000000000E+00 -0.00000000000E+00 -0.30680648123E+02  0.30713491648E+02  0.14200000000E+01 0. -1.
       1023    2    1    2    0    0  0.00000000000E+00  0.00000000000E+00 -0.27609697924E+02  0.34096853160E+02  0.20007497994E+02 0.  0.
        -11    1    3    3    0    0 -0.79310034884E+01  0.60930376630E+01 -0.13427340196E+02  0.16742741391E+02  0.51100000000E-03 0.  1.
         11    1    3    3    0    0  0.79310034884E+01 -0.60930376630E+01 -0.14182357728E+02  0.17354111769E+02  0.51100000000E-03 0. -1.
<mgrwt>
<rscale>  0 0.20007498E+02</rscale>
<asrwt>0</asrwt>
<pdfrwt beam="1">  1        4 0.49901196E-03 0.20007498E+02</pdfrwt>
<pdfrwt beam="2">  1       -4 0.47466576E-02 0.20007498E+02</pdfrwt>
<totfact> 0.12237413E+06</totfact>
</mgrwt>
</event>
<event>
 5    1  0.1154861E-006  0.2000757E+02  0.7818608E-02  0.1745178E+00
          4   -1    0    0  501    0  0.00000000000E+00  0.00000000000E+00  0.10667736220E+03  0.10668681271E+03  0.14200000000E+01 0. -1.
         -4   -1    0    0    0  501 -0.00000000000E+00 -0.00000000000E+00 -0.38573892401E+00  0.14714599952E+01  0.14200000000E+01 0.  1.
       1023    2    1    2    0    0  0.00000000000E+00  0.00000000000E+00  0.10629162328E+03  0.10815827271E+03  0.20007567960E+02 0.  0.
        -11    1    3    3    0    0 -0.10428422288E+01  0.99492602652E+01  0.53038519542E+02  0.53973695957E+02  0.51100000000E-03 0. -1.
         11    1    3    3    0    0  0.10428422288E+01 -0.99492602652E+01  0.53253103736E+02  0.54184576750E+02  0.51100000000E-03 0.  1.
<mgrwt>
<rscale>  0 0.20007568E+02</rscale>
<asrwt>0</asrwt>
<pdfrwt beam="1">  1        4 0.16496139E-01 0.20007568E+02</pdfrwt>
<pdfrwt beam="2">  1       -4 0.14358848E-03 0.20007568E+02</pdfrwt>
<totfact> 0.95676290E+05</totfact>
</mgrwt>
</event>
<event>
 5    1  0.1154861E-006  0.2000301E+02  0.7818608E-02  0.1745268E+00
          4   -1    0    0  501    0  0.00000000000E+00  0.00000000000E+00  0.89715305106E+02  0.89726542172E+02  0.14200000000E+01 0.  1.
         -4   -1    0    0    0  501 -0.00000000000E+00 -0.00000000000E+00 -0.64687511913E+00  0.15603997628E+01  0.14200000000E+01 0. -1.
       1023    2    1    2    0    0  0.00000000000E+00  0.00000000000E+00  0.89068429987E+02  0.91286941935E+02  0.20003013463E+02 0.  0.
        -11    1    3    3    0    0 -0.54273365022E+01  0.84006379387E+01  0.44801777575E+02  0.45904531078E+02  0.51100000000E-03 0.  1.
         11    1    3    3    0    0  0.54273365022E+01 -0.84006379387E+01  0.44266652411E+02  0.45382410858E+02  0.51100000000E-03 0. -1.
<mgrwt>
<rscale>  0 0.20003013E+02</rscale>
<asrwt>0</asrwt>
<pdfrwt beam="1">  1        4 0.13873490E-01 0.20003013E+02</pdfrwt>
<pdfrwt beam="2">  1       -4 0.17065477E-03 0.20003013E+02</pdfrwt>
<totfact> 0.10053654E+06</totfact>
</mgrwt>
</event>
<event>
 5    1  0.1154861E-006  0.2000147E+02  0.7818608E-02  0.1745299E+00
          4   -1    0    0  501    0  0.00000000000E+00  0.00000000000E+00  0.42413423707E+02  0.42437187826E+02  0.14200000000E+01 0. -1.
         -4   -1    0    0    0  501 -0.00000000000E+00 -0.00000000000E+00 -0.21175885287E+01  0.25496237324E+01  0.14200000000E+01 0.  1.
       1023    2    1    2    0    0  0.00000000000E+00  0.00000000000E+00  0.40295835178E+02  0.44986811558E+02  0.20001471982E+02 0.  0.
        -11    1    3    3    0    0 -0.66038529782E+01 -0.75094119036E+01  0.19895660775E+02  0.22267452913E+02  0.51100000000E-03 0.  1.
         11    1    3    3    0    0  0.66038529782E+01  0.75094119036E+01  0.20400174404E+02  0.22719358645E+02  0.51100000000E-03 0. -1.
<mgrwt>
<rscale>  0 0.20001472E+02</rscale>
<asrwt>0</asrwt>
<pdfrwt beam="1">  1        4 0.65602038E-02 0.20001472E+02</pdfrwt>
<pdfrwt beam="2">  1       -4 0.36084433E-03 0.20001472E+02</pdfrwt>
<totfact> 0.11734645E+06</totfact>
</mgrwt>
</event>
<event>
 5    1  0.1154861E-006  0.2000516E+02  0.7818608E-02  0.1745225E+00
          4   -1    0    0  501    0  0.00000000000E+00  0.00000000000E+00  0.10432480434E+02  0.10528677410E+02  0.14200000000E+01 0.  1.
         -4   -1    0    0    0  501 -0.00000000000E+00 -0.00000000000E+00 -0.93965953956E+01  0.95032839076E+01  0.14200000000E+01 0. -1.
       1023    2    1    2    0    0  0.00000000000E+00  0.00000000000E+00  0.10358850384E+01  0.20031961318E+02  0.20005159745E+02 0.  0.
        -11    1    3    3    0    0  0.73985998924E+01 -0.67313142177E+01  0.47626490693E+00  0.10013825442E+02  0.51100000000E-03 0. -1.
         11    1    3    3    0    0 -0.73985998924E+01  0.67313142177E+01  0.55962013143E+00  0.10018135875E+02  0.51100000000E-03 0.  1.
<mgrwt>
<rscale>  0 0.20005160E+02</rscale>
<asrwt>0</asrwt>
<pdfrwt beam="1">  1        4 0.16206036E-02 0.20005160E+02</pdfrwt>
<pdfrwt beam="2">  1       -4 0.14612366E-02 0.20005160E+02</pdfrwt>
<totfact> 0.13005296E+06</totfact>
</mgrwt>
</event>
<event>
 5    1  0.1154861E-006  0.2000077E+02  0.7818608E-02  0.1745313E+00
          4   -1    0    0  501    0  0.00000000000E+00  0.00000000000E+00  0.66437387722E+02  0.66452561180E+02  0.14200000000E+01 0.  1.
         -4   -1    0    0    0  501 -0.00000000000E+00 -0.00000000000E+00 -0.11515650808E+01  0.18282511138E+01  0.14200000000E+01 0. -1.
       1023    2    1    2    0    0  0.00000000000E+00  0.00000000000E+00  0.65285822642E+02  0.68280812294E+02  0.20000767223E+02 0.  0.
        -11    1    3    3    0    0  0.42162645695E+01 -0.90680776236E+01  0.32549205327E+02  0.34050810363E+02  0.51100000000E-03 0.  1.
         11    1    3    3    0    0 -0.42162645695E+01  0.90680776236E+01  0.32736617314E+02  0.34230001930E+02  0.51100000000E-03 0. -1.
<mgrwt>
<rscale>  0 0.20000767E+02</rscale>
<asrwt>0</asrwt>
<pdfrwt beam="1">  1        4 0.10274356E-01 0.20000767E+02</pdfrwt>
<pdfrwt beam="2">  1       -4 0.23038384E-03 0.20000767E+02</pdfrwt>
<totfact> 0.10811084E+06</totfact>
</mgrwt>
</event>
<event>
 5    1  0.1154861E-006  0.2000488E+02  0.7818608E-02  0.1745231E+00
         -4   -1    0    0    0  501 -0.00000000000E+00  0.00000000000E+00  0.36288083376E+01  0.38967486384E+01  0.14200000000E+01 0. -1.
          4   -1    0    0  501    0  0.00000000000E+00 -0.00000000000E+00 -0.26301296233E+02  0.26339601052E+02  0.14200000000E+01 0.  1.
       1023    2    1    2    0    0  0.00000000000E+00  0.00000000000E+00 -0.22672487896E+02  0.30236349690E+02  0.20004877785E+02 0.  0.
        -11    1    3    3    0    0  0.91895706844E+01 -0.39458275512E+01 -0.11602443997E+02  0.15317782848E+02  0.51100000000E-03 0.  1.
         11    1    3    3    0    0 -0.91895706844E+01  0.39458275512E+01 -0.11070043899E+02  0.14918566842E+02  0.51100000000E-03 0. -1.
<mgrwt>
<rscale>  0 0.20004878E+02</rscale>
<asrwt>0</asrwt>
<pdfrwt beam="2">  1        4 0.40699105E-02 0.20004878E+02</pdfrwt>
<pdfrwt beam="1">  1       -4 0.58183554E-03 0.20004878E+02</pdfrwt>
<totfact> 0.12437250E+06</totfact>
</mgrwt>
</event>
<event>
 5    1  0.1154861E-006  0.2000022E+02  0.7818608E-02  0.1745324E+00
          4   -1    0    0  501    0  0.00000000000E+00  0.00000000000E+00  0.79602679146E+01  0.80859300808E+01  0.14200000000E+01 0. -1.
         -4   -1    0    0    0  501 -0.00000000000E+00 -0.00000000000E+00 -0.12297453490E+02  0.12379166464E+02  0.14200000000E+01 0.  1.
       1023    2    1    2    0    0  0.00000000000E+00  0.00000000000E+00 -0.43371855752E+01  0.20465096544E+02  0.20000224945E+02 0.  0.
        -11    1    3    3    0    0 -0.79205474525E+01 -0.61045777381E+01 -0.22055982251E+01  0.10240390866E+02  0.51100000000E-03 0.  1.
         11    1    3    3    0    0  0.79205474525E+01  0.61045777381E+01 -0.21315873501E+01  0.10224705678E+02  0.51100000000E-03 0. -1.
<mgrwt>
<rscale>  0 0.20000225E+02</rscale>
<asrwt>0</asrwt>
<pdfrwt beam="1">  1        4 0.12406085E-02 0.20000225E+02</pdfrwt>
<pdfrwt beam="2">  1       -4 0.19078679E-02 0.20000225E+02</pdfrwt>
<totfact> 0.12986091E+06</totfact>
</mgrwt>
</event>
<event>
 5    1  0.1185415E-006  0.2000066E+02  0.7818608E-02  0.1745315E+00
          4   -1    0    0  501    0  0.00000000000E+00  0.00000000000E+00  0.10615592775E+02  0.10710145189E+02  0.14200000000E+01 0. -1.
         -4   -1    0    0    0  501 -0.00000000000E+00 -0.00000000000E+00 -0.92298659352E+01  0.93384594651E+01  0.14200000000E+01 0.  1.
       1023    2    1    2    0    0  0.00000000000E+00  0.00000000000E+00  0.13857268400E+01  0.20048604654E+02  0.20000657732E+02 0.  0.
        -11    1    3    3    0    0  0.98334023305E+01  0.18195537198E+01  0.69303901373E+00  0.10024314464E+02  0.51100000000E-03 0.  1.
         11    1    3    3    0    0 -0.98334023305E+01 -0.18195537198E+01  0.69268782622E+00  0.10024290190E+02  0.51100000000E-03 0. -1.
<mgrwt>
<rscale>  0 0.20000658E+02</rscale>
<asrwt>0</asrwt>
<pdfrwt beam="1">  1        4 0.16487947E-02 0.20000658E+02</pdfrwt>
<pdfrwt beam="2">  1       -4 0.14356060E-02 0.20000658E+02</pdfrwt>
<totfact> 0.13010287E+06</totfact>
</mgrwt>
</event>
<event>
 5    1  0.1154861E-006  0.2000265E+02  0.7818608E-02  0.1745275E+00
          4   -1    0    0  501    0  0.00000000000E+00  0.00000000000E+00  0.17650375937E+01  0.22653383207E+01  0.14200000000E+01 0.  1.
         -4   -1    0    0    0  501 -0.00000000000E+00 -0.00000000000E+00 -0.49124463250E+02  0.49144982344E+02  0.14200000000E+01 0. -1.
       1023    2    1    2    0    0  0.00000000000E+00  0.00000000000E+00 -0.47359425657E+02  0.51410320665E+02  0.20002646634E+02 0.  0.
        -11    1    3    3    0    0 -0.87557021410E+01 -0.48316143354E+01 -0.24040003099E+02  0.26037061400E+02  0.51100000000E-03 0. -1.
         11    1    3    3    0    0  0.87557021410E+01  0.48316143354E+01 -0.23319422558E+02  0.25373259265E+02  0.51100000000E-03 0.  1.
<mgrwt>
<rscale>  0 0.20002647E+02</rscale>
<asrwt>0</asrwt>
<pdfrwt beam="1">  1        4 0.31160735E-03 0.20002647E+02</pdfrwt>
<pdfrwt beam="2">  1       -4 0.75976719E-02 0.20002647E+02</pdfrwt>
<totfact> 0.11458252E+06</totfact>
</mgrwt>
</event>
<event>
 5    1  0.1154861E-006  0.2000060E+02  0.7818608E-02  0.1745316E+00
         -4   -1    0    0    0  501 -0.00000000000E+00  0.00000000000E+00  0.34034643705E+02  0.34064253583E+02  0.14200000000E+01 0.  1.
          4   -1    0    0  501    0  0.00000000000E+00 -0.00000000000E+00 -0.27340092506E+01  0.30807801905E+01  0.14200000000E+01 0. -1.
       1023    2    1    2    0    0  0.00000000000E+00  0.00000000000E+00  0.31300634455E+02  0.37145033773E+02  0.20000595410E+02 0.  0.
        -11    1    3    3    0    0  0.97428568604E+01  0.22540568408E+01  0.15568899074E+02  0.18503909065E+02  0.51100000000E-03 0. -1.
         11    1    3    3    0    0 -0.97428568604E+01 -0.22540568408E+01  0.15731735380E+02  0.18641124708E+02  0.51100000000E-03 0.  1.
<mgrwt>
<rscale>  0 0.20000595E+02</rscale>
<asrwt>0</asrwt>
<pdfrwt beam="2">  1        4 0.44956921E-03 0.20000595E+02</pdfrwt>
<pdfrwt beam="1">  1       -4 0.52650511E-02 0.20000595E+02</pdfrwt>
<totfact> 0.12096892E+06</totfact>
</mgrwt>
</event>
<event>
 5    1  0.1154861E-006  0.2000431E+02  0.7818608E-02  0.1745242E+00
          4   -1    0    0  501    0  0.00000000000E+00  0.00000000000E+00  0.25327338105E+00  0.14424102764E+01  0.14200000000E+01 0. -1.
         -4   -1    0    0    0  501 -0.00000000000E+00 -0.00000000000E+00 -0.11680086208E+03  0.11680949355E+03  0.14200000000E+01 0.  1.
       1023    2    1    2    0    0  0.00000000000E+00  0.00000000000E+00 -0.11654758870E+03  0.11825190382E+03  0.20004307692E+02 0.  0.
        -11    1    3    3    0    0 -0.51660036715E+00 -0.99888003010E+01 -0.58222974289E+02  0.59075864300E+02  0.51100000000E-03 0.  1.
         11    1    3    3    0    0  0.51660036715E+00  0.99888003010E+01 -0.58324614410E+02  0.59176039524E+02  0.51100000000E-03 0. -1.
<mgrwt>
<rscale>  0 0.20004308E+02</rscale>
<asrwt>0</asrwt>
<pdfrwt beam="1">  1        4 0.13110126E-03 0.20004308E+02</pdfrwt>
<pdfrwt beam="2">  1       -4 0.18061487E-01 0.20004308E+02</pdfrwt>
<totfact> 0.93060712E+05</totfact>
</mgrwt>
</event>
<event>
 4    1  0.1154861E-006  0.2036918E+02  0.7818608E-02  0.1738085E+00
         -4   -1    0    0    0  501 -0.00000000000E+00  0.00000000000E+00  0.12911772717E+02  0.12989621807E+02  0.14200000000E+01 0.  1.
          4   -1    0    0  501    0  0.00000000000E+00 -0.00000000000E+00 -0.78676884312E+01  0.79948058920E+01  0.14200000000E+01 0. -1.
        -11    1    1    2    0    0 -0.53374664385E+01  0.86689383072E+01  0.28255861725E+01  0.10565177558E+02  0.51100000000E-03 0.  1.
         11    1    1    2    0    0  0.53374664385E+01 -0.86689383072E+01  0.22184981129E+01  0.10419250141E+02  0.51100000000E-03 0. -1.
<mgrwt>
<rscale>  0 0.20369178E+02</rscale>
<asrwt>0</asrwt>
<pdfrwt beam="2">  1        4 0.12261803E-02 0.20369178E+02</pdfrwt>
<pdfrwt beam="1">  1       -4 0.20021932E-02 0.20369178E+02</pdfrwt>
<totfact> 0.12479077E+06</totfact>
</mgrwt>
</event>
<event>
 5    1  0.1154861E-006  0.2000016E+02  0.7818608E-02  0.1745325E+00
          4   -1    0    0  501    0  0.00000000000E+00  0.00000000000E+00  0.13106982545E+02  0.13183678979E+02  0.14200000000E+01 0. -1.
         -4   -1    0    0    0  501 -0.00000000000E+00 -0.00000000000E+00 -0.74635552969E+01  0.75974375726E+01  0.14200000000E+01 0.  1.
       1023    2    1    2    0    0  0.00000000000E+00  0.00000000000E+00  0.56434272478E+01  0.20781116552E+02  0.20000163350E+02 0.  0.
        -11    1    3    3    0    0 -0.44487546201E+01 -0.89559872439E+01  0.28451340962E+01  0.10396918460E+02  0.51100000000E-03 0. -1.
         11    1    3    3    0    0  0.44487546201E+01  0.89559872439E+01  0.27982931516E+01  0.10384198092E+02  0.51100000000E-03 0.  1.
<mgrwt>
<rscale>  0 0.20000163E+02</rscale>
<asrwt>0</asrwt>
<pdfrwt beam="1">  1        4 0.20326572E-02 0.20000163E+02</pdfrwt>
<pdfrwt beam="2">  1       -4 0.11644376E-02 0.20000163E+02</pdfrwt>
<totfact> 0.12967480E+06</totfact>
</mgrwt>
</event>
<event>
 4    1  0.1154861E-006  0.2002164E+02  0.7818608E-02  0.1744898E+00
         -4   -1    0    0    0  501 -0.00000000000E+00  0.00000000000E+00  0.11734236181E+02  0.11819843432E+02  0.14200000000E+01 0. -1.
          4   -1    0    0  501    0  0.00000000000E+00 -0.00000000000E+00 -0.83638129806E+01  0.84834997244E+01  0.14200000000E+01 0.  1.
        -11    1    1    2    0    0  0.63445735817E+00 -0.99896701857E+01  0.15401929527E+01  0.10127597995E+02  0.51100000000E-03 0.  1.
         11    1    1    2    0    0 -0.63445735817E+00  0.99896701857E+01  0.18302302475E+01  0.10175745161E+02  0.51100000000E-03 0. -1.
<mgrwt>
<rscale>  0 0.20021638E+02</rscale>
<asrwt>0</asrwt>
<pdfrwt beam="2">  1        4 0.13025323E-02 0.20021638E+02</pdfrwt>
<pdfrwt beam="1">  1       -4 0.18210589E-02 0.20021638E+02</pdfrwt>
<totfact> 0.12967334E+06</totfact>
</mgrwt>
</event>
<event>
 5    1  0.1172236E-006  0.2000110E+02  0.7818608E-02  0.1745306E+00
         -4   -1    0    0    0  501 -0.00000000000E+00  0.00000000000E+00  0.53942649533E+02  0.53961336517E+02  0.14200000000E+01 0. -1.
          4   -1    0    0  501    0  0.00000000000E+00 -0.00000000000E+00 -0.15602511763E+01  0.21096880654E+01  0.14200000000E+01 0.  1.
       1023    2    1    2    0    0  0.00000000000E+00  0.00000000000E+00  0.52382398357E+02  0.56071024582E+02  0.20001103471E+02 0.  0.
        -11    1    3    3    0    0 -0.60761966480E+01  0.79429632169E+01  0.26231277069E+02  0.28072953662E+02  0.51100000000E-03 0. -1.
         11    1    3    3    0    0  0.60761966480E+01 -0.79429632169E+01  0.26151121288E+02  0.27998070920E+02  0.51100000000E-03 0.  1.
<mgrwt>
<rscale>  0 0.20001103E+02</rscale>
<asrwt>0</asrwt>
<pdfrwt beam="2">  1        4 0.28374051E-03 0.20001103E+02</pdfrwt>
<pdfrwt beam="1">  1       -4 0.83425700E-02 0.20001103E+02</pdfrwt>
<totfact> 0.11270918E+06</totfact>
</mgrwt>
</event>
<event>
 5    1  0.1154861E-006  0.2000023E+02  0.7818608E-02  0.1745323E+00
         -4   -1    0    0    0  501 -0.00000000000E+00  0.00000000000E+00  0.49112895370E+01  0.51124519476E+01  0.14200000000E+01 0.  1.
          4   -1    0    0  501    0  0.00000000000E+00 -0.00000000000E+00 -0.19725898186E+02  0.19776942617E+02  0.14200000000E+01 0. -1.
       1023    2    1    2    0    0  0.00000000000E+00  0.00000000000E+00 -0.14814608649E+02  0.24889394564E+02  0.20000233307E+02 0.  0.
        -11    1    3    3    0    0  0.96555128814E+01 -0.26025558809E+01 -0.74201595102E+01  0.12452348916E+02  0.51100000000E-03 0.  1.
         11    1    3    3    0    0 -0.96555128814E+01  0.26025558809E+01 -0.73944491391E+01  0.12437045648E+02  0.51100000000E-03 0. -1.
<mgrwt>
<rscale>  0 0.20000233E+02</rscale>
<asrwt>0</asrwt>
<pdfrwt beam="2">  1        4 0.30541541E-02 0.20000233E+02</pdfrwt>
<pdfrwt beam="1">  1       -4 0.77498354E-03 0.20000233E+02</pdfrwt>
<totfact> 0.12731472E+06</totfact>
</mgrwt>
</event>
<event>
 5    1  0.1154861E-006  0.2000035E+02  0.7818608E-02  0.1745321E+00
          4   -1    0    0  501    0  0.00000000000E+00  0.00000000000E+00  0.66541592641E+01  0.68039867367E+01  0.14200000000E+01 0.  1.
         -4   -1    0    0    0  501 -0.00000000000E+00 -0.00000000000E+00 -0.14676930927E+02  0.14745463758E+02  0.14200000000E+01 0. -1.
       1023    2    1    2    0    0  0.00000000000E+00  0.00000000000E+00 -0.80227716633E+01  0.21549450495E+02  0.20000348784E+02 0.  0.
        -11    1    3    3    0    0 -0.69087672228E+01  0.72299601745E+01 -0.40006682894E+01  0.10770735151E+02  0.51100000000E-03 0. -1.
         11    1    3    3    0    0  0.69087672228E+01 -0.72299601745E+01 -0.40221033738E+01  0.10778715344E+02  0.51100000000E-03 0.  1.
<mgrwt>
<rscale>  0 0.20000349E+02</rscale>
<asrwt>0</asrwt>
<pdfrwt beam="1">  1        4 0.10405138E-02 0.20000349E+02</pdfrwt>
<pdfrwt beam="2">  1       -4 0.22747863E-02 0.20000349E+02</pdfrwt>
<totfact> 0.12922013E+06</totfact>
</mgrwt>
</event>
<event>
 5    1  0.1154861E-006  0.2000036E+02  0.7818608E-02  0.1745321E+00
          4   -1    0    0  501    0  0.00000000000E+00  0.00000000000E+00  0.20222329117E+01  0.24709969545E+01  0.14200000000E+01 0.  1.
         -4   -1    0    0    0  501 -0.00000000000E+00 -0.00000000000E+00 -0.44051655424E+02  0.44074536249E+02  0.14200000000E+01 0. -1.
       1023    2    1    2    0    0  0.00000000000E+00  0.00000000000E+00 -0.42029422512E+02  0.46545533204E+02  0.20000357610E+02 0.  0.
        -11    1    3    3    0    0  0.75626755523E+01 -0.65426689721E+01 -0.21142117107E+02  0.23387810817E+02  0.51100000000E-03 0.  1.
         11    1    3    3    0    0 -0.75626755523E+01  0.65426689721E+01 -0.20887305406E+02  0.23157722387E+02  0.51100000000E-03 0. -1.
<mgrwt>
<rscale>  0 0.20000358E+02</rscale>
<asrwt>0</asrwt>
<pdfrwt beam="1">  1        4 0.34739316E-03 0.20000358E+02</pdfrwt>
<pdfrwt beam="2">  1       -4 0.68134575E-02 0.20000358E+02</pdfrwt>
<totfact> 0.11667584E+06</totfact>
</mgrwt>
</event>
<event>
 4    1  0.1154861E-006  0.2003752E+02  0.7818608E-02  0.1744583E+00
          4   -1    0    0  501    0  0.00000000000E+00  0.00000000000E+00  0.43883426385E+01  0.46123693600E+01  0.14200000000E+01 0. -1.
         -4   -1    0    0    0  501 -0.00000000000E+00 -0.00000000000E+00 -0.22056490488E+02  0.22102153123E+02  0.14200000000E+01 0.  1.
        -11    1    1    2    0    0 -0.76296704720E+01 -0.64903721860E+01 -0.85715847562E+01  0.13183659132E+02  0.51100000000E-03 0. -1.
         11    1    1    2    0    0  0.76296704720E+01  0.64903721860E+01 -0.90965630934E+01  0.13530863350E+02  0.51100000000E-03 0.  1.
<mgrwt>
<rscale>  0 0.20037521E+02</rscale>
<asrwt>0</asrwt>
<pdfrwt beam="1">  1        4 0.69587498E-03 0.20037521E+02</pdfrwt>
<pdfrwt beam="2">  1       -4 0.34140515E-02 0.20037521E+02</pdfrwt>
<totfact> 0.12582934E+06</totfact>
</mgrwt>
</event>
<event>
 5    1  0.1209054E-006  0.2000104E+02  0.7818608E-02  0.1745307E+00
         -4   -1    0    0    0  501 -0.00000000000E+00  0.00000000000E+00  0.96272334093E+01  0.97313936883E+01  0.14200000000E+01 0.  1.
          4   -1    0    0  501    0  0.00000000000E+00 -0.00000000000E+00 -0.10178676103E+02  0.10277249009E+02  0.14200000000E+01 0. -1.
       1023    2    1    2    0    0  0.00000000000E+00  0.00000000000E+00 -0.55144269338E+00  0.20008642698E+02  0.20001042312E+02 0.  0.
        -11    1    3    3    0    0  0.49712693365E+01  0.86773745250E+01 -0.26701932187E+00  0.10004081519E+02  0.51100000000E-03 0.  1.
         11    1    3    3    0    0 -0.49712693365E+01 -0.86773745250E+01 -0.28442337151E+00  0.10004561179E+02  0.51100000000E-03 0. -1.
<mgrwt>
<rscale>  0 0.20001042E+02</rscale>
<asrwt>0</asrwt>
<pdfrwt beam="2">  1        4 0.15815450E-02 0.20001042E+02</pdfrwt>
<pdfrwt beam="1">  1       -4 0.14967077E-02 0.20001042E+02</pdfrwt>
<totfact> 0.13012147E+06</totfact>
</mgrwt>
</event>
<event>
 5    1  0.1154861E-006  0.2000073E+02  0.7818608E-02  0.1745314E+00
         -4   -1    0    0    0  501 -0.00000000000E+00  0.00000000000E+00  0.22443887196E+02  0.22488763249E+02  0.14200000000E+01 0. -1.
          4   -1    0    0  501    0  0.00000000000E+00 -0.00000000000E+00 -0.42920378751E+01  0.45208394267E+01  0.14200000000E+01 0. -1.
       1023    2    1    2    0    0  0.00000000000E+00  0.00000000000E+00  0.18151849321E+02  0.27009602676E+02  0.20000725060E+02 0.  0.
        -11    1    3    3    0    0 -0.75608497252E+01 -0.65452479724E+01  0.90448094568E+01  0.13483890312E+02  0.51100000000E-03 0.  1.
         11    1    3    3    0    0  0.75608497252E+01  0.65452479724E+01  0.91070398642E+01  0.13525712363E+02  0.51100000000E-03 0. -1.
<mgrwt>
<rscale>  0 0.20000725E+02</rscale>
<asrwt>0</asrwt>
<pdfrwt beam="2">  1        4 0.68136565E-03 0.20000725E+02</pdfrwt>
<pdfrwt beam="1">  1       -4 0.34739578E-02 0.20000725E+02</pdfrwt>
<totfact> 0.12614044E+06</totfact>
</mgrwt>
</event>
<event>
 5    1  0.1154861E-006  0.2000022E+02  0.7818608E-02  0.1745324E+00
         -4   -1    0    0    0  501 -0.00000000000E+00  0.00000000000E+00  0.17703514554E+01  0.22694810586E+01  0.14200000000E+01 0.  1.
          4   -1    0    0  501    0  0.00000000000E+00 -0.00000000000E+00 -0.48997412040E+02  0.49017984318E+02  0.14200000000E+01 0. -1.
       1023    2    1    2    0    0  0.00000000000E+00  0.00000000000E+00 -0.47227060584E+02  0.51287465377E+02  0.20000221332E+02 0.  0.
        -11    1    3    3    0    0  0.33443292498E+01 -0.94242846898E+01 -0.23672733953E+02  0.25698249223E+02  0.51100000000E-03 0.  1.
         11    1    3    3    0    0 -0.33443292498E+01  0.94242846898E+01 -0.23554326631E+02  0.25589216154E+02  0.51100000000E-03 0. -1.
<mgrwt>
<rscale>  0 0.20000221E+02</rscale>
<asrwt>0</asrwt>
<pdfrwt beam="2">  1        4 0.75780396E-02 0.20000221E+02</pdfrwt>
<pdfrwt beam="1">  1       -4 0.31233887E-03 0.20000221E+02</pdfrwt>
<totfact> 0.11466153E+06</totfact>
</mgrwt>
</event>
<event>
 5    1  0.1182243E-006  0.2000237E+02  0.7818608E-02  0.1745281E+00
          4   -1    0    0  501    0  0.00000000000E+00  0.00000000000E+00  0.25923501386E+02  0.25962363608E+02  0.14200000000E+01 0. -1.
         -4   -1    0    0    0  501 -0.00000000000E+00 -0.00000000000E+00 -0.36844866553E+01  0.39486506446E+01  0.14200000000E+01 0.  1.
       1023    2    1    2    0    0  0.00000000000E+00  0.00000000000E+00  0.22239014730E+02  0.29911014252E+02  0.20002374794E+02 0.  0.
        -11    1    3    3    0    0  0.97353141905E+01  0.22879182638E+01  0.10950082690E+02  0.14829538885E+02  0.51100000000E-03 0.  1.
         11    1    3    3    0    0 -0.97353141905E+01 -0.22879182638E+01  0.11288932041E+02  0.15081475367E+02  0.51100000000E-03 0. -1.
<mgrwt>
<rscale>  0 0.20002375E+02</rscale>
<asrwt>0</asrwt>
<pdfrwt beam="1">  1        4 0.40115405E-02 0.20002375E+02</pdfrwt>
<pdfrwt beam="2">  1       -4 0.59015383E-03 0.20002375E+02</pdfrwt>
<totfact> 0.12457385E+06</totfact>
</mgrwt>
</event>
<event>
 5    1  0.1154861E-006  0.2000030E+02  0.7818608E-02  0.1745322E+00
          4   -1    0    0  501    0  0.00000000000E+00  0.00000000000E+00  0.15976980619E+02  0.16039959778E+02  0.14200000000E+01 0.  1.
         -4   -1    0    0    0  501 -0.00000000000E+00 -0.00000000000E+00 -0.61022222073E+01  0.62652626335E+01  0.14200000000E+01 0. -1.
       1023    2    1    2    0    0  0.00000000000E+00  0.00000000000E+00  0.98747584113E+01  0.22305222412E+02  0.20000302327E+02 0.  0.
        -11    1    3    3    0    0  0.15422896085E+01 -0.98804237117E+01  0.49818922442E+01  0.11172317600E+02  0.51100000000E-03 0.  1.
         11    1    3    3    0    0 -0.15422896085E+01  0.98804237117E+01  0.48928661671E+01  0.11132904812E+02  0.51100000000E-03 0. -1.
<mgrwt>
<rscale>  0 0.20000302E+02</rscale>
<asrwt>0</asrwt>
<pdfrwt beam="1">  1        4 0.24753831E-02 0.20000302E+02</pdfrwt>
<pdfrwt beam="2">  1       -4 0.95618956E-03 0.20000302E+02</pdfrwt>
<totfact> 0.12878150E+06</totfact>
</mgrwt>
</event>
<event>
 5    1  0.1164171E-006  0.2000154E+02  0.7818608E-02  0.1745297E+00
          4   -1    0    0  501    0  0.00000000000E+00  0.00000000000E+00  0.15640156775E+02  0.15704486746E+02  0.14200000000E+01 0. -1.
         -4   -1    0    0    0  501 -0.00000000000E+00 -0.00000000000E+00 -0.62373669353E+01  0.63969638333E+01  0.14200000000E+01 0.  1.
       1023    2    1    2    0    0  0.00000000000E+00  0.00000000000E+00  0.94027898395E+01  0.22101450579E+02  0.20001541464E+02 0.  0.
        -11    1    3    3    0    0 -0.99994917457E+01  0.15537246636E+00  0.47433144943E+01  0.11068559456E+02  0.51100000000E-03 0.  1.
         11    1    3    3    0    0  0.99994917457E+01 -0.15537246636E+00  0.46594753452E+01  0.11032891123E+02  0.51100000000E-03 0. -1.
<mgrwt>
<rscale>  0 0.20001541E+02</rscale>
<asrwt>0</asrwt>
<pdfrwt beam="1">  1        4 0.24234031E-02 0.20001541E+02</pdfrwt>
<pdfrwt beam="2">  1       -4 0.97682008E-03 0.20001541E+02</pdfrwt>
<totfact> 0.12888313E+06</totfact>
</mgrwt>
</event>
<event>
 5    1  0.1154861E-006  0.2000776E+02  0.7818608E-02  0.1745174E+00
          4   -1    0    0  501    0  0.00000000000E+00  0.00000000000E+00  0.44629318112E+02  0.44651902929E+02  0.14200000000E+01 0. -1.
         -4   -1    0    0    0  501 -0.00000000000E+00 -0.00000000000E+00 -0.19920564983E+01  0.24463624205E+01  0.14200000000E+01 0.  1.
       1023    2    1    2    0    0  0.00000000000E+00  0.00000000000E+00  0.42637261614E+02  0.47098265349E+02  0.20007761518E+02 0.  0.
        -11    1    3    3    0    0 -0.37302765392E+01  0.92782758129E+01  0.21968713582E+02  0.24137641597E+02  0.51100000000E-03 0.  1.
         11    1    3    3    0    0  0.37302765392E+01 -0.92782758129E+01  0.20668548031E+02  0.22960623753E+02  0.51100000000E-03 0. -1.
<mgrwt>
<rscale>  0 0.20007762E+02</rscale>
<asrwt>0</asrwt>
<pdfrwt beam="1">  1        4 0.69027321E-02 0.20007762E+02</pdfrwt>
<pdfrwt beam="2">  1       -4 0.34315417E-03 0.20007762E+02</pdfrwt>
<totfact> 0.11634894E+06</totfact>
</mgrwt>
</event>
<event>
 5    1  0.1154861E-006  0.2000329E+02  0.7818608E-02  0.1745263E+00
         -4   -1    0    0    0  501 -0.00000000000E+00  0.00000000000E+00  0.89897900263E+01  0.91012485252E+01  0.14200000000E+01 0.  1.
          4   -1    0    0  501    0  0.00000000000E+00 -0.00000000000E+00 -0.10901041532E+02  0.10993139064E+02  0.14200000000E+01 0. -1.
       1023    2    1    2    0    0  0.00000000000E+00  0.00000000000E+00 -0.19112515058E+01  0.20094387589E+02  0.20003287987E+02 0.  0.
        -11    1    3    3    0    0  0.93934824877E+01 -0.34344345734E+01 -0.95028918866E+00  0.10046686214E+02  0.51100000000E-03 0. -1.
         11    1    3    3    0    0 -0.93934824877E+01  0.34344345734E+01 -0.96096231715E+00  0.10047701375E+02  0.51100000000E-03 0.  1.
<mgrwt>
<rscale>  0 0.20003288E+02</rscale>
<asrwt>0</asrwt>
<pdfrwt beam="2">  1        4 0.16927415E-02 0.20003288E+02</pdfrwt>
<pdfrwt beam="1">  1       -4 0.13987028E-02 0.20003288E+02</pdfrwt>
<totfact> 0.13004079E+06</totfact>
</mgrwt>
</event>
<event>
 5    1  0.1154861E-006  0.2000383E+02  0.7818608E-02  0.1745252E+00
         -4   -1    0    0    0  501 -0.00000000000E+00  0.00000000000E+00  0.88990015771E+02  0.89001344411E+02  0.14200000000E+01 0. -1.
          4   -1    0    0  501    0  0.00000000000E+00 -0.00000000000E+00 -0.65969003454E+00  0.15657557095E+01  0.14200000000E+01 0.  1.
       1023    2    1    2    0    0  0.00000000000E+00  0.00000000000E+00  0.88330325737E+02  0.90567100121E+02  0.20003829120E+02 0.  0.
        -11    1    3    3    0    0 -0.99917500971E+01  0.40920360344E+00  0.43308796923E+02  0.44448334151E+02  0.51100000000E-03 0. -1.
         11    1    3    3    0    0  0.99917500971E+01 -0.40920360344E+00  0.45021528814E+02  0.46118765970E+02  0.51100000000E-03 0.  1.
<mgrwt>
<rscale>  0 0.20003829E+02</rscale>
<asrwt>0</asrwt>
<pdfrwt beam="2">  1        4 0.17205963E-03 0.20003829E+02</pdfrwt>
<pdfrwt beam="1">  1       -4 0.13761336E-01 0.20003829E+02</pdfrwt>
<totfact> 0.10074613E+06</totfact>
</mgrwt>
</event>
<event>
 5    1  0.1154861E-006  0.2000074E+02  0.7818608E-02  0.1745313E+00
          4   -1    0    0  501    0  0.00000000000E+00  0.00000000000E+00  0.25937244869E+01  0.29569928498E+01  0.14200000000E+01 0. -1.
         -4   -1    0    0    0  501 -0.00000000000E+00 -0.00000000000E+00 -0.35655732122E+02  0.35683996878E+02  0.14200000000E+01 0.  1.
       1023    2    1    2    0    0  0.00000000000E+00  0.00000000000E+00 -0.33062007636E+02  0.38640989728E+02  0.20000743442E+02 0.  0.
        -11    1    3    3    0    0 -0.11200192984E+01  0.99373343382E+01 -0.16436804856E+02  0.19239896338E+02  0.51100000000E-03 0.  1.
         11    1    3    3    0    0  0.11200192984E+01 -0.99373343382E+01 -0.16625202780E+02  0.19401093390E+02  0.51100000000E-03 0. -1.
<mgrwt>
<rscale>  0 0.20000743E+02</rscale>
<asrwt>0</asrwt>
<pdfrwt beam="1">  1        4 0.42915249E-03 0.20000743E+02</pdfrwt>
<pdfrwt beam="2">  1       -4 0.55156149E-02 0.20000743E+02</pdfrwt>
<totfact> 0.12025434E+06</totfact>
</mgrwt>
</event>
<event>
 4    1  0.1154861E-006  0.2034182E+02  0.7818608E-02  0.1738615E+00
         -4   -1    0    0    0  501 -0.00000000000E+00  0.00000000000E+00  0.13223216654E+01  0.19403439352E+01  0.14200000000E+01 0.  1.
          4   -1    0    0  501    0  0.00000000000E+00 -0.00000000000E+00 -0.62785253419E+02  0.62801309277E+02  0.14200000000E+01 0. -1.
        -11    1    1    2    0    0  0.24152748845E+01  0.98282077327E+01 -0.33946137430E+02  0.35422697056E+02  0.51100000000E-03 0. -1.
         11    1    1    2    0    0 -0.24152748845E+01 -0.98282077327E+01 -0.27516794323E+02  0.29318956156E+02  0.51100000000E-03 0.  1.
<mgrwt>
<rscale>  0 0.20341821E+02</rscale>
<asrwt>0</asrwt>
<pdfrwt beam="2">  1        4 0.97080431E-02 0.20341821E+02</pdfrwt>
<pdfrwt beam="1">  1       -4 0.25220939E-03 0.20341821E+02</pdfrwt>
<totfact> 0.10572856E+06</totfact>
</mgrwt>
</event>
<event>
 5    1  0.1154861E-006  0.2000612E+02  0.7818608E-02  0.1745206E+00
          4   -1    0    0  501    0  0.00000000000E+00  0.00000000000E+00  0.78511393344E+01  0.79785204674E+01  0.14200000000E+01 0. -1.
         -4   -1    0    0    0  501 -0.00000000000E+00 -0.00000000000E+00 -0.12474259590E+02  0.12554821875E+02  0.14200000000E+01 0.  1.
       1023    2    1    2    0    0  0.00000000000E+00  0.00000000000E+00 -0.46231202557E+01  0.20533342343E+02  0.20006121735E+02 0.  0.
        -11    1    3    3    0    0 -0.96170936301E+01 -0.27513351088E+01 -0.23667516309E+01  0.10279097641E+02  0.51100000000E-03 0.  1.
         11    1    3    3    0    0  0.96170936301E+01  0.27513351088E+01 -0.22563686248E+01  0.10254244702E+02  0.51100000000E-03 0. -1.
<mgrwt>
<rscale>  0 0.20006122E+02</rscale>
<asrwt>0</asrwt>
<pdfrwt beam="1">  1        4 0.12238632E-02 0.20006122E+02</pdfrwt>
<pdfrwt beam="2">  1       -4 0.19351125E-02 0.20006122E+02</pdfrwt>
<totfact> 0.12974241E+06</totfact>
</mgrwt>
</event>
<event>
 5    1  0.1154861E-006  0.2000025E+02  0.7818608E-02  0.1745323E+00
          4   -1    0    0  501    0  0.00000000000E+00  0.00000000000E+00  0.45450072206E+01  0.47616688918E+01  0.14200000000E+01 0.  1.
         -4   -1    0    0    0  501 -0.00000000000E+00 -0.00000000000E+00 -0.21249580238E+02  0.21296973031E+02  0.14200000000E+01 0. -1.
       1023    2    1    2    0    0  0.00000000000E+00  0.00000000000E+00 -0.16704573017E+02  0.26058641923E+02  0.20000251478E+02 0.  0.
        -11    1    3    3    0    0  0.83320568990E+01 -0.55298329336E+01 -0.83300951328E+01  0.13015095452E+02  0.51100000000E-03 0.  1.
         11    1    3    3    0    0 -0.83320568990E+01  0.55298329336E+01 -0.83744778846E+01  0.13043546471E+02  0.51100000000E-03 0. -1.
<mgrwt>
<rscale>  0 0.20000251E+02</rscale>
<asrwt>0</asrwt>
<pdfrwt beam="1">  1        4 0.71954377E-03 0.20000251E+02</pdfrwt>
<pdfrwt beam="2">  1       -4 0.32894780E-02 0.20000251E+02</pdfrwt>
<totfact> 0.12666617E+06</totfact>
</mgrwt>
</event>
<event>
 5    1  0.1154861E-006  0.2000100E+02  0.7818608E-02  0.1745308E+00
          4   -1    0    0  501    0  0.00000000000E+00  0.00000000000E+00  0.52379188073E+02  0.52398432641E+02  0.14200000000E+01 0.  1.
         -4   -1    0    0    0  501 -0.00000000000E+00 -0.00000000000E+00 -0.16229407658E+01  0.21564639411E+01  0.14200000000E+01 0. -1.
       1023    2    1    2    0    0  0.00000000000E+00  0.00000000000E+00  0.50756247307E+02  0.54554896582E+02  0.20001002483E+02 0.  0.
        -11    1    3    3    0    0  0.94049235730E+01 -0.33995769595E+01  0.25329797591E+02  0.27232487165E+02  0.51100000000E-03 0. -1.
         11    1    3    3    0    0 -0.94049235730E+01  0.33995769595E+01  0.25426449716E+02  0.27322409417E+02  0.51100000000E-03 0.  1.
<mgrwt>
<rscale>  0 0.20001002E+02</rscale>
<asrwt>0</asrwt>
<pdfrwt beam="1">  1        4 0.81008563E-02 0.20001002E+02</pdfrwt>
<pdfrwt beam="2">  1       -4 0.29220382E-03 0.20001002E+02</pdfrwt>
<totfact> 0.11331652E+06</totfact>
</mgrwt>
</event>
<event>
 5    1  0.1154861E-006  0.2000118E+02  0.7818608E-02  0.1745305E+00
         -4   -1    0    0    0  501 -0.00000000000E+00  0.00000000000E+00  0.76211850429E+02  0.76225078195E+02  0.14200000000E+01 0. -1.
          4   -1    0    0  501    0  0.00000000000E+00 -0.00000000000E+00 -0.91081747084E+00  0.16870057692E+01  0.14200000000E+01 0.  1.
       1023    2    1    2    0    0  0.00000000000E+00  0.00000000000E+00  0.75301032959E+02  0.77912083964E+02  0.20001181541E+02 0.  0.
        -11    1    3    3    0    0  0.47911567599E+01  0.87777073626E+01  0.37291679578E+02  0.38609230705E+02  0.51100000000E-03 0. -1.
         11    1    3    3    0    0 -0.47911567599E+01 -0.87777073626E+01  0.38009353380E+02  0.39302853259E+02  0.51100000000E-03 0.  1.
<mgrwt>
<rscale>  0 0.20001182E+02</rscale>
<asrwt>0</asrwt>
<pdfrwt beam="2">  1        4 0.20085006E-03 0.20001182E+02</pdfrwt>
<pdfrwt beam="1">  1       -4 0.11785626E-01 0.20001182E+02</pdfrwt>
<totfact> 0.10478702E+06</totfact>
</mgrwt>
</event>
<event>
 5    1  0.1191639E-006  0.2000124E+02  0.7818608E-02  0.1745303E+00
         -4   -1    0    0    0  501 -0.00000000000E+00  0.00000000000E+00  0.86712951320E+01  0.87867945957E+01  0.14200000000E+01 0.  1.
          4   -1    0    0  501    0  0.00000000000E+00 -0.00000000000E+00 -0.11297190345E+02  0.11386084037E+02  0.14200000000E+01 0. -1.
       1023    2    1    2    0    0  0.00000000000E+00  0.00000000000E+00 -0.26258952133E+01  0.20172878633E+02  0.20001242628E+02 0.  0.
        -11    1    3    3    0    0 -0.10000311798E+02 -0.35758963274E-01 -0.13836320878E+01  0.10095640286E+02  0.51100000000E-03 0. -1.
         11    1    3    3    0    0  0.10000311798E+02  0.35758963274E-01 -0.12422631255E+01  0.10077238347E+02  0.51100000000E-03 0.  1.
<mgrwt>
<rscale>  0 0.20001243E+02</rscale>
<asrwt>0</asrwt>
<pdfrwt beam="2">  1        4 0.17537518E-02 0.20001243E+02</pdfrwt>
<pdfrwt beam="1">  1       -4 0.13497680E-02 0.20001243E+02</pdfrwt>
<totfact> 0.13002112E+06</totfact>
</mgrwt>
</event>
<event>
 5    1  0.1205740E-006  0.2000119E+02  0.7818608E-02  0.1745304E+00
         -4   -1    0    0    0  501 -0.00000000000E+00  0.00000000000E+00  0.10016595922E+02  0.10116748186E+02  0.14200000000E+01 0. -1.
          4   -1    0    0  501    0  0.00000000000E+00 -0.00000000000E+00 -0.97832860387E+01  0.98858022292E+01  0.14200000000E+01 0.  1.
       1023    2    1    2    0    0  0.00000000000E+00  0.00000000000E+00  0.23330988324E+00  0.20002550415E+02  0.20001189705E+02 0.  0.
        -11    1    3    3    0    0 -0.95160151358E+01 -0.30749623296E+01  0.16092703157E+00  0.10001791598E+02  0.51100000000E-03 0.  1.
         11    1    3    3    0    0  0.95160151358E+01  0.30749623296E+01  0.72382851666E-01  0.10000758818E+02  0.51100000000E-03 0. -1.
<mgrwt>
<rscale>  0 0.20001190E+02</rscale>
<asrwt>0</asrwt>
<pdfrwt beam="2">  1        4 0.15207108E-02 0.20001190E+02</pdfrwt>
<pdfrwt beam="1">  1       -4 0.15566046E-02 0.20001190E+02</pdfrwt>
<totfact> 0.13012313E+06</totfact>
</mgrwt>
</event>
<event>
 5    1  0.1154861E-006  0.2000753E+02  0.7818608E-02  0.1745178E+00
          4   -1    0    0  501    0  0.00000000000E+00  0.00000000000E+00  0.56274162070E+01  0.58038102284E+01  0.14200000000E+01 0.  1.
         -4   -1    0    0    0  501 -0.00000000000E+00 -0.00000000000E+00 -0.17303176465E+02  0.17361345448E+02  0.14200000000E+01 0. -1.
       1023    2    1    2    0    0  0.00000000000E+00  0.00000000000E+00 -0.11675760258E+02  0.23165155677E+02  0.20007525083E+02 0.  0.
        -11    1    3    3    0    0 -0.85331008079E+01 -0.52174088860E+01 -0.56060268868E+01  0.11465718582E+02  0.51100000000E-03 0.  1.
         11    1    3    3    0    0  0.85331008079E+01  0.52174088860E+01 -0.60697333712E+01  0.11699437095E+02  0.51100000000E-03 0. -1.
<mgrwt>
<rscale>  0 0.20007525E+02</rscale>
<asrwt>0</asrwt>
<pdfrwt beam="1">  1        4 0.88379965E-03 0.20007525E+02</pdfrwt>
<pdfrwt beam="2">  1       -4 0.26800704E-02 0.20007525E+02</pdfrwt>
<totfact> 0.12819303E+06</totfact>
</mgrwt>
</event>
<event>
 5    1  0.1154861E-006  0.2000060E+02  0.7818608E-02  0.1745316E+00
         -4   -1    0    0    0  501 -0.00000000000E+00  0.00000000000E+00  0.80116420645E+02  0.80129003844E+02  0.14200000000E+01 0. -1.
          4   -1    0    0  501    0  0.00000000000E+00 -0.00000000000E+00 -0.82754680261E+00  0.16435430358E+01  0.14200000000E+01 0.  1.
       1023    2    1    2    0    0  0.00000000000E+00  0.00000000000E+00  0.79288873843E+02  0.81772546880E+02  0.20000597690E+02 0.  0.
        -11    1    3    3    0    0  0.49338291983E+01  0.86983559586E+01  0.39465764776E+02  0.40713028093E+02  0.51100000000E-03 0.  1.
         11    1    3    3    0    0 -0.49338291983E+01 -0.86983559586E+01  0.39823109067E+02  0.41059518787E+02  0.51100000000E-03 0. -1.
<mgrwt>
<rscale>  0 0.20000598E+02</rscale>
<asrwt>0</asrwt>
<pdfrwt beam="2">  1        4 0.19105172E-03 0.20000598E+02</pdfrwt>
<pdfrwt beam="1">  1       -4 0.12389344E-01 0.20000598E+02</pdfrwt>
<totfact> 0.10352982E+06</totfact>
</mgrwt>
</event>
<event>
 5    1  0.1154861E-006  0.2000045E+02  0.7818608E-02  0.1745319E+00
          4   -1    0    0  501    0  0.00000000000E+00  0.00000000000E+00  0.14669640858E+01  0.20416619772E+01  0.14200000000E+01 0.  1.
         -4   -1    0    0    0  501 -0.00000000000E+00 -0.00000000000E+00 -0.56419864757E+02  0.56437731520E+02  0.14200000000E+01 0. -1.
       1023    2    1    2    0    0  0.00000000000E+00  0.00000000000E+00 -0.54952900671E+02  0.58479393498E+02  0.20000454287E+02 0.  0.
        -11    1    3    3    0    0 -0.71482712524E+01  0.69932862568E+01 -0.27554255640E+02  0.29312810146E+02  0.51100000000E-03 0. -1.
         11    1    3    3    0    0  0.71482712524E+01 -0.69932862568E+01 -0.27398645031E+02  0.29166583351E+02  0.51100000000E-03 0.  1.
<mgrwt>
<rscale>  0 0.20000454E+02</rscale>
<asrwt>0</asrwt>
<pdfrwt beam="1">  1        4 0.27126872E-03 0.20000454E+02</pdfrwt>
<pdfrwt beam="2">  1       -4 0.87255597E-02 0.20000454E+02</pdfrwt>
<totfact> 0.11177058E+06</totfact>
</mgrwt>
</event>
<event>
 5    1  0.1154861E-006  0.2000038E+02  0.7818608E-02  0.1745321E+00
          4   -1    0    0  501    0  0.00000000000E+00  0.00000000000E+00  0.38663150478E+00  0.14716942347E+01  0.14200000000E+01 0. -1.
         -4   -1    0    0    0  501 -0.00000000000E+00 -0.00000000000E+00 -0.10653527231E+03  0.10654473542E+03  0.14200000000E+01 0.  1.
       1023    2    1    2    0    0  0.00000000000E+00  0.00000000000E+00 -0.10614864080E+03  0.10801642966E+03  0.20000378272E+02 0.  0.
        -11    1    3    3    0    0 -0.86535559060E+01  0.50118103571E+01 -0.52864482033E+02  0.53802004924E+02  0.51100000000E-03 0.  1.
         11    1    3    3    0    0  0.86535559060E+01 -0.50118103571E+01 -0.53284158770E+02  0.54214424732E+02  0.51100000000E-03 0. -1.
<mgrwt>
<rscale>  0 0.20000378E+02</rscale>
<asrwt>0</asrwt>
<pdfrwt beam="1">  1        4 0.14367615E-03 0.20000378E+02</pdfrwt>
<pdfrwt beam="2">  1       -4 0.16474227E-01 0.20000378E+02</pdfrwt>
<totfact> 0.95783212E+05</totfact>
</mgrwt>
</event>
<event>
 5    1  0.1154861E-006  0.2000179E+02  0.7818608E-02  0.1745293E+00
          4   -1    0    0  501    0  0.00000000000E+00  0.00000000000E+00  0.12749811220E+02  0.12828643192E+02  0.14200000000E+01 0. -1.
         -4   -1    0    0    0  501 -0.00000000000E+00 -0.00000000000E+00 -0.76763268669E+01  0.78065609694E+01  0.14200000000E+01 0.  1.
       1023    2    1    2    0    0  0.00000000000E+00  0.00000000000E+00  0.50734843529E+01  0.20635204161E+02  0.20001785103E+02 0.  0.
        -11    1    3    3    0    0 -0.97534370600E+01  0.22107174474E+01  0.25700994808E+01  0.10325803490E+02  0.51100000000E-03 0.  1.
         11    1    3    3    0    0  0.97534370600E+01 -0.22107174474E+01  0.25033848721E+01  0.10309400671E+02  0.51100000000E-03 0. -1.
<mgrwt>
<rscale>  0 0.20001785E+02</rscale>
<asrwt>0</asrwt>
<pdfrwt beam="1">  1        4 0.19775914E-02 0.20001785E+02</pdfrwt>
<pdfrwt beam="2">  1       -4 0.11970554E-02 0.20001785E+02</pdfrwt>
<totfact> 0.12973963E+06</totfact>
</mgrwt>
</event>
<event>
 5    1  0.1169461E-006  0.2000080E+02  0.7818608E-02  0.1745312E+00
         -4   -1    0    0    0  501 -0.00000000000E+00  0.00000000000E+00  0.43630244451E+01  0.45882875137E+01  0.14200000000E+01 0. -1.
          4   -1    0    0  501    0  0.00000000000E+00 -0.00000000000E+00 -0.22096253881E+02  0.22141834513E+02  0.14200000000E+01 0.  1.
       1023    2    1    2    0    0  0.00000000000E+00  0.00000000000E+00 -0.17733229436E+02  0.26730122026E+02  0.20000799917E+02 0.  0.
        -11    1    3    3    0    0  0.76973242997E+01 -0.63837129585E+01 -0.89816316192E+01  0.13441365233E+02  0.51100000000E-03 0.  1.
         11    1    3    3    0    0 -0.76973242997E+01  0.63837129585E+01 -0.87515978170E+01  0.13288756794E+02  0.51100000000E-03 0. -1.
<mgrwt>
<rscale>  0 0.20000800E+02</rscale>
<asrwt>0</asrwt>
<pdfrwt beam="2">  1        4 0.34202577E-02 0.20000800E+02</pdfrwt>
<pdfrwt beam="1">  1       -4 0.69206867E-03 0.20000800E+02</pdfrwt>
<totfact> 0.12629150E+06</totfact>
</mgrwt>
</event>
<event>
 5    1  0.1154861E-006  0.2000067E+02  0.7818608E-02  0.1745315E+00
          4   -1    0    0  501    0  0.00000000000E+00  0.00000000000E+00  0.14234470191E+02  0.14305122915E+02  0.14200000000E+01 0. -1.
         -4   -1    0    0    0  501 -0.00000000000E+00 -0.00000000000E+00 -0.68647809314E+01  0.70101082186E+01  0.14200000000E+01 0.  1.
       1023    2    1    2    0    0  0.00000000000E+00  0.00000000000E+00  0.73696892595E+01  0.21315231134E+02  0.20000668951E+02 0.  0.
        -11    1    3    3    0    0 -0.86459936096E+01 -0.50252228148E+01  0.36583183613E+01  0.10648444174E+02  0.51100000000E-03 0.  1.
         11    1    3    3    0    0  0.86459936096E+01  0.50252228148E+01  0.37113708983E+01  0.10666786960E+02  0.51100000000E-03 0. -1.
<mgrwt>
<rscale>  0 0.20000669E+02</rscale>
<asrwt>0</asrwt>
<pdfrwt beam="1">  1        4 0.22065323E-02 0.20000669E+02</pdfrwt>
<pdfrwt beam="2">  1       -4 0.10727340E-02 0.20000669E+02</pdfrwt>
<totfact> 0.12935312E+06</totfact>
</mgrwt>
</event>
<event>
 5    1  0.1154861E-006  0.2000022E+02  0.7818608E-02  0.1745324E+00
         -4   -1    0    0    0  501 -0.00000000000E+00  0.00000000000E+00  0.11521960935E+02  0.11609133637E+02  0.14200000000E+01 0. -1.
          4   -1    0    0  501    0  0.00000000000E+00 -0.00000000000E+00 -0.85002690861E+01  0.86180609499E+01  0.14200000000E+01 0.  1.
       1023    2    1    2    0    0  0.00000000000E+00  0.00000000000E+00  0.30216918493E+01  0.20227194587E+02  0.20000219479E+02 0.  0.
        -11    1    3    3    0    0  0.65789011030E+01  0.75312826606E+01  0.15169398438E+01  0.10114507649E+02  0.51100000000E-03 0. -1.
         11    1    3    3    0    0 -0.65789011030E+01 -0.75312826606E+01  0.15047520054E+01  0.10112686937E+02  0.51100000000E-03 0.  1.
<mgrwt>
<rscale>  0 0.20000219E+02</rscale>
<asrwt>0</asrwt>
<pdfrwt beam="2">  1        4 0.13235002E-02 0.20000219E+02</pdfrwt>
<pdfrwt beam="1">  1       -4 0.17883759E-02 0.20000219E+02</pdfrwt>
<totfact> 0.13000231E+06</totfact>
</mgrwt>
</event>
<event>
 5    1  0.1154861E-006  0.2001121E+02  0.7818608E-02  0.1745105E+00
         -4   -1    0    0    0  501 -0.00000000000E+00  0.00000000000E+00  0.92379161935E+01  0.93464161901E+01  0.14200000000E+01 0. -1.
          4   -1    0    0  501    0  0.00000000000E+00 -0.00000000000E+00 -0.10617781127E+02  0.10712314225E+02  0.14200000000E+01 0.  1.
       1023    2    1    2    0    0  0.00000000000E+00  0.00000000000E+00 -0.13798649331E+01  0.20058730415E+02  0.20011212823E+02 0.  0.
        -11    1    3    3    0    0  0.23684200320E+01  0.97199404629E+01 -0.52985558936E+00  0.10018353321E+02  0.51100000000E-03 0. -1.
         11    1    3    3    0    0 -0.23684200320E+01 -0.97199404629E+01 -0.85000934374E+00  0.10040377094E+02  0.51100000000E-03 0.  1.
<mgrwt>
<rscale>  0 0.20011213E+02</rscale>
<asrwt>0</asrwt>
<pdfrwt beam="2">  1        4 0.16491227E-02 0.20011213E+02</pdfrwt>
<pdfrwt beam="1">  1       -4 0.14368358E-02 0.20011213E+02</pdfrwt>
<totfact> 0.12995677E+06</totfact>
</mgrwt>
</event>
<event>
 5    1  0.1154861E-006  0.2000046E+02  0.7818608E-02  0.1745319E+00
          4   -1    0    0  501    0  0.00000000000E+00  0.00000000000E+00  0.31282179782E+02  0.31314392408E+02  0.14200000000E+01 0.  1.
         -4   -1    0    0    0  501 -0.00000000000E+00 -0.00000000000E+00 -0.30035359572E+01  0.33222926190E+01  0.14200000000E+01 0. -1.
       1023    2    1    2    0    0  0.00000000000E+00  0.00000000000E+00  0.28278643825E+02  0.34636685027E+02  0.20000456323E+02 0.  0.
        -11    1    3    3    0    0  0.77814805319E+01  0.62810475386E+01  0.14070799566E+02  0.17262398389E+02  0.51100000000E-03 0. -1.
         11    1    3    3    0    0 -0.77814805319E+01 -0.62810475386E+01  0.14207844259E+02  0.17374286638E+02  0.51100000000E-03 0.  1.
<mgrwt>
<rscale>  0 0.20000456E+02</rscale>
<asrwt>0</asrwt>
<pdfrwt beam="1">  1        4 0.48396406E-02 0.20000456E+02</pdfrwt>
<pdfrwt beam="2">  1       -4 0.48908010E-03 0.20000456E+02</pdfrwt>
<totfact> 0.12219361E+06</totfact>
</mgrwt>
</event>
<event>
 5    1  0.1154861E-006  0.2000013E+02  0.7818608E-02  0.1745325E+00
         -4   -1    0    0    0  501 -0.00000000000E+00  0.00000000000E+00  0.79269945538E+02  0.79282663084E+02  0.14200000000E+01 0. -1.
          4   -1    0    0  501    0  0.00000000000E+00 -0.00000000000E+00 -0.84497090957E+00  0.16523848940E+01  0.14200000000E+01 0.  1.
       1023    2    1    2    0    0  0.00000000000E+00  0.00000000000E+00  0.78424974629E+02  0.80935047978E+02  0.20000133641E+02 0.  0.
        -11    1    3    3    0    0  0.48739691538E+01  0.87318587420E+01  0.39293799915E+02  0.40546314807E+02  0.51100000000E-03 0. -1.
         11    1    3    3    0    0 -0.48739691538E+01 -0.87318587420E+01  0.39131174714E+02  0.40388733171E+02  0.51100000000E-03 0.  1.
<mgrwt>
<rscale>  0 0.20000134E+02</rscale>
<asrwt>0</asrwt>
<pdfrwt beam="2">  1        4 0.19308257E-03 0.20000134E+02</pdfrwt>
<pdfrwt beam="1">  1       -4 0.12258463E-01 0.20000134E+02</pdfrwt>
<totfact> 0.10380564E+06</totfact>
</mgrwt>
</event>
<event>
 5    1  0.1154861E-006  0.2000590E+02  0.7818608E-02  0.1745211E+00
          4   -1    0    0  501    0  0.00000000000E+00  0.00000000000E+00  0.62396587968E+01  0.63991985358E+01  0.14200000000E+01 0. -1.
         -4   -1    0    0    0  501 -0.00000000000E+00 -0.00000000000E+00 -0.15641451606E+02  0.15705776274E+02  0.14200000000E+01 0. -1.
       1023    2    1    2    0    0  0.00000000000E+00  0.00000000000E+00 -0.94017928097E+01  0.22104974809E+02  0.20005904211E+02 0.  0.
        -11    1    3    3    0    0  0.99990917232E+01 -0.26808224981E+00 -0.47816932159E+01  0.11086852288E+02  0.51100000000E-03 0.  1.
         11    1    3    3    0    0 -0.99990917232E+01  0.26808224981E+00 -0.46200995938E+01  0.11018122522E+02  0.51100000000E-03 0. -1.
<mgrwt>
<rscale>  0 0.20005904E+02</rscale>
<asrwt>0</asrwt>
<pdfrwt beam="1">  1        4 0.97716785E-03 0.20005904E+02</pdfrwt>
<pdfrwt beam="2">  1       -4 0.24235975E-02 0.20005904E+02</pdfrwt>
<totfact> 0.12882378E+06</totfact>
</mgrwt>
</event>
<event>
 5    1  0.1173934E-006  0.2000139E+02  0.7818608E-02  0.1745301E+00
          4   -1    0    0  501    0  0.00000000000E+00  0.00000000000E+00  0.22656790272E+02  0.22701245460E+02  0.14200000000E+01 0. -1.
         -4   -1    0    0    0  501 -0.00000000000E+00 -0.00000000000E+00 -0.42499288968E+01  0.44808811218E+01  0.14200000000E+01 0.  1.
       1023    2    1    2    0    0  0.00000000000E+00  0.00000000000E+00  0.18406861375E+02  0.27182126582E+02  0.20001386448E+02 0.  0.
        -11    1    3    3    0    0  0.74941934587E+01 -0.66218901157E+01  0.92560719176E+01  0.13626710238E+02  0.51100000000E-03 0.  1.
         11    1    3    3    0    0 -0.74941934587E+01  0.66218901157E+01  0.91507894579E+01  0.13555416344E+02  0.51100000000E-03 0. -1.
<mgrwt>
<rscale>  0 0.20001386E+02</rscale>
<asrwt>0</asrwt>
<pdfrwt beam="1">  1        4 0.35068452E-02 0.20001386E+02</pdfrwt>
<pdfrwt beam="2">  1       -4 0.67502041E-03 0.20001386E+02</pdfrwt>
<totfact> 0.12603840E+06</totfact>
</mgrwt>
</event>
<event>
 5    1  0.1154861E-006  0.2000036E+02  0.7818608E-02  0.1745321E+00
          4   -1    0    0  501    0  0.00000000000E+00  0.00000000000E+00  0.20015313841E+01  0.24540839190E+01  0.14200000000E+01 0.  1.
         -4   -1    0    0    0  501 -0.00000000000E+00 -0.00000000000E+00 -0.44423723030E+02  0.44446412317E+02  0.14200000000E+01 0. -1.
       1023    2    1    2    0    0  0.00000000000E+00  0.00000000000E+00 -0.42422191646E+02  0.46900496236E+02  0.20000355075E+02 0.  0.
        -11    1    3    3    0    0 -0.92914145782E+01 -0.36977110672E+01 -0.21234372001E+02  0.23471301765E+02  0.51100000000E-03 0.  1.
         11    1    3    3    0    0  0.92914145782E+01  0.36977110672E+01 -0.21187819645E+02  0.23429194471E+02  0.51100000000E-03 0. -1.
<mgrwt>
<rscale>  0 0.20000355E+02</rscale>
<asrwt>0</asrwt>
<pdfrwt beam="1">  1        4 0.34448500E-03 0.20000355E+02</pdfrwt>
<pdfrwt beam="2">  1       -4 0.68709753E-02 0.20000355E+02</pdfrwt>
<totfact> 0.11652165E+06</totfact>
</mgrwt>
</event>
<event>
 4    1  0.1154861E-006  0.2009913E+02  0.7818608E-02  0.1743364E+00
         -4   -1    0    0    0  501 -0.00000000000E+00  0.00000000000E+00  0.62257397361E+01  0.63856272411E+01  0.14200000000E+01 0.  1.
          4   -1    0    0  501    0  0.00000000000E+00 -0.00000000000E+00 -0.15824221455E+02  0.15887806162E+02  0.14200000000E+01 0. -1.
        -11    1    1    2    0    0  0.31516336098E+01  0.95090908207E+01 -0.39139846305E+01  0.10755225641E+02  0.51100000000E-03 0.  1.
         11    1    1    2    0    0 -0.31516336098E+01 -0.95090908207E+01 -0.56844970884E+01  0.11518207762E+02  0.51100000000E-03 0. -1.
<mgrwt>
<rscale>  0 0.20099129E+02</rscale>
<asrwt>0</asrwt>
<pdfrwt beam="2">  1        4 0.24516858E-02 0.20099129E+02</pdfrwt>
<pdfrwt beam="1">  1       -4 0.97499628E-03 0.20099129E+02</pdfrwt>
<totfact> 0.12751091E+06</totfact>
</mgrwt>
</event>
<event>
 5    1  0.1156684E-006  0.2000218E+02  0.7818608E-02  0.1745285E+00
         -4   -1    0    0    0  501 -0.00000000000E+00  0.00000000000E+00  0.26307999912E+02  0.26346294983E+02  0.14200000000E+01 0.  1.
          4   -1    0    0  501    0  0.00000000000E+00 -0.00000000000E+00 -0.36267539469E+01  0.38948355795E+01  0.14200000000E+01 0. -1.
       1023    2    1    2    0    0  0.00000000000E+00  0.00000000000E+00  0.22681245965E+02  0.30241130563E+02  0.20002176362E+02 0.  0.
        -11    1    3    3    0    0 -0.74689525132E+01 -0.66497283006E+01  0.11541348641E+02  0.15271112167E+02  0.51100000000E-03 0. -1.
         11    1    3    3    0    0  0.74689525132E+01  0.66497283006E+01  0.11139897324E+02  0.14970018395E+02  0.51100000000E-03 0.  1.
<mgrwt>
<rscale>  0 0.20002176E+02</rscale>
<asrwt>0</asrwt>
<pdfrwt beam="2">  1        4 0.58152960E-03 0.20002176E+02</pdfrwt>
<pdfrwt beam="1">  1       -4 0.40709520E-02 0.20002176E+02</pdfrwt>
<totfact> 0.12440414E+06</totfact>
</mgrwt>
</event>
<event>
 5    1  0.1154861E-006  0.2000114E+02  0.7818608E-02  0.1745305E+00
         -4   -1    0    0    0  501 -0.00000000000E+00  0.00000000000E+00  0.60222856827E+00  0.15424264159E+01  0.14200000000E+01 0. -1.
          4   -1    0    0  501    0  0.00000000000E+00 -0.00000000000E+00 -0.92317675518E+02  0.92328595858E+02  0.14200000000E+01 0.  1.
       1023    2    1    2    0    0  0.00000000000E+00  0.00000000000E+00 -0.91715446950E+02  0.93871022274E+02  0.20001140305E+02 0.  0.
        -11    1    3    3    0    0 -0.68108187809E+01 -0.73227245786E+01 -0.45655563727E+02  0.46737993616E+02  0.51100000000E-03 0.  1.
         11    1    3    3    0    0  0.68108187809E+01  0.73227245786E+01 -0.46059883223E+02  0.47133028658E+02  0.51100000000E-03 0. -1.
<mgrwt>
<rscale>  0 0.20001140E+02</rscale>
<asrwt>0</asrwt>
<pdfrwt beam="2">  1        4 0.14275876E-01 0.20001140E+02</pdfrwt>
<pdfrwt beam="1">  1       -4 0.16581356E-03 0.20001140E+02</pdfrwt>
<totfact> 0.99782220E+05</totfact>
</mgrwt>
</event>
<event>
 5    1  0.1180581E-006  0.2000178E+02  0.7818608E-02  0.1745293E+00
         -4   -1    0    0    0  501 -0.00000000000E+00  0.00000000000E+00  0.15502698815E+02  0.15567596814E+02  0.14200000000E+01 0. -1.
          4   -1    0    0  501    0  0.00000000000E+00 -0.00000000000E+00 -0.62940022211E+01  0.64521983818E+01  0.14200000000E+01 0.  1.
       1023    2    1    2    0    0  0.00000000000E+00  0.00000000000E+00  0.92086965941E+01  0.22019795195E+02  0.20001782108E+02 0.  0.
        -11    1    3    3    0    0  0.58676474058E+00 -0.99834560723E+01  0.45335685617E+01  0.10980297454E+02  0.51100000000E-03 0. -1.
         11    1    3    3    0    0 -0.58676474058E+00  0.99834560723E+01  0.46751280324E+01  0.11039497742E+02  0.51100000000E-03 0.  1.
<mgrwt>
<rscale>  0 0.20001782E+02</rscale>
<asrwt>0</asrwt>
<pdfrwt beam="2">  1        4 0.98546913E-03 0.20001782E+02</pdfrwt>
<pdfrwt beam="1">  1       -4 0.24021917E-02 0.20001782E+02</pdfrwt>
<totfact> 0.12892732E+06</totfact>
</mgrwt>
</event>
<event>
 5    1  0.1193523E-006  0.2000154E+02  0.7818608E-02  0.1745297E+00
         -4   -1    0    0    0  501 -0.00000000000E+00  0.00000000000E+00  0.14805474661E+02  0.14873415208E+02  0.14200000000E+01 0.  1.
          4   -1    0    0  501    0  0.00000000000E+00 -0.00000000000E+00 -0.65961637764E+01  0.67472791972E+01  0.14200000000E+01 0. -1.
       1023    2    1    2    0    0  0.00000000000E+00  0.00000000000E+00  0.82093108850E+01  0.21620694405E+02  0.20001540975E+02 0.  0.
        -11    1    3    3    0    0  0.73373333808E+00 -0.99735492209E+01  0.40255064322E+01  0.10780294568E+02  0.51100000000E-03 0.  1.
         11    1    3    3    0    0 -0.73373333808E+00  0.99735492209E+01  0.41838044528E+01  0.10840399837E+02  0.51100000000E-03 0. -1.
<mgrwt>
<rscale>  0 0.20001541E+02</rscale>
<asrwt>0</asrwt>
<pdfrwt beam="2">  1        4 0.10316449E-02 0.20001541E+02</pdfrwt>
<pdfrwt beam="1">  1       -4 0.22946158E-02 0.20001541E+02</pdfrwt>
<totfact> 0.12916279E+06</totfact>
</mgrwt>
</event>
<event>
 5    1  0.1154861E-006  0.2000090E+02  0.7818608E-02  0.1745310E+00
          4   -1    0    0  501    0  0.00000000000E+00  0.00000000000E+00  0.49757978912E+02  0.49778236865E+02  0.14200000000E+01 0.  1.
         -4   -1    0    0    0  501 -0.00000000000E+00 -0.00000000000E+00 -0.17357714853E+01  0.22426106771E+01  0.14200000000E+01 0. -1.
       1023    2    1    2    0    0  0.00000000000E+00  0.00000000000E+00  0.48022207427E+02  0.52020847542E+02  0.20000904302E+02 0.  0.
        -11    1    3    3    0    0  0.93591123918E+01 -0.35233426851E+01  0.23891503018E+02  0.25900016316E+02  0.51100000000E-03 0.  1.
         11    1    3    3    0    0 -0.93591123918E+01  0.35233426851E+01  0.24130704408E+02  0.26120831226E+02  0.51100000000E-03 0. -1.
<mgrwt>
<rscale>  0 0.20000904E+02</rscale>
<asrwt>0</asrwt>
<pdfrwt beam="1">  1        4 0.76956197E-02 0.20000904E+02</pdfrwt>
<pdfrwt beam="2">  1       -4 0.30758770E-03 0.20000904E+02</pdfrwt>
<totfact> 0.11435015E+06</totfact>
</mgrwt>
</event>
<event>
 4    1  0.1277438E-006  0.2010195E+02  0.7818608E-02  0.1743308E+00
         -4   -1    0    0    0  501 -0.00000000000E+00  0.00000000000E+00  0.21255681752E+01  0.25562550865E+01  0.14200000000E+01 0. -1.
          4   -1    0    0  501    0  0.00000000000E+00 -0.00000000000E+00 -0.42711440038E+02  0.42735038436E+02  0.14200000000E+01 0.  1.
        -11    1    1    2    0    0  0.19021612110E+01  0.98194091467E+01 -0.18059026781E+02  0.20643823818E+02  0.51100000000E-03 0. -1.
         11    1    1    2    0    0 -0.19021612110E+01 -0.98194091467E+01 -0.22526845082E+02  0.24647469705E+02  0.51100000000E-03 0.  1.
<mgrwt>
<rscale>  0 0.20101947E+02</rscale>
<asrwt>0</asrwt>
<pdfrwt beam="2">  1        4 0.66059352E-02 0.20101947E+02</pdfrwt>
<pdfrwt beam="1">  1       -4 0.36195554E-03 0.20101947E+02</pdfrwt>
<totfact> 0.11603053E+06</totfact>
</mgrwt>
</event>
<event>
 5    1  0.1154861E-006  0.2000344E+02  0.7818608E-02  0.1745260E+00
          4   -1    0    0  501    0  0.00000000000E+00  0.00000000000E+00  0.55319053304E+02  0.55337275488E+02  0.14200000000E+01 0. -1.
         -4   -1    0    0    0  501 -0.00000000000E+00 -0.00000000000E+00 -0.15080908912E+01  0.20714096978E+01  0.14200000000E+01 0.  1.
       1023    2    1    2    0    0  0.00000000000E+00  0.00000000000E+00  0.53810962412E+02  0.57408685185E+02  0.20003436179E+02 0.  0.
        -11    1    3    3    0    0  0.15112520923E+01  0.98867689403E+01  0.26768397770E+02  0.28575849985E+02  0.51100000000E-03 0. -1.
         11    1    3    3    0    0 -0.15112520923E+01 -0.98867689403E+01  0.27042564642E+02  0.28832835200E+02  0.51100000000E-03 0.  1.
<mgrwt>
<rscale>  0 0.20003436E+02</rscale>
<asrwt>0</asrwt>
<pdfrwt beam="1">  1        4 0.85553557E-02 0.20003436E+02</pdfrwt>
<pdfrwt beam="2">  1       -4 0.27674796E-03 0.20003436E+02</pdfrwt>
<totfact> 0.11215494E+06</totfact>
</mgrwt>
</event>
<event>
 5    1  0.1154861E-006  0.2000048E+02  0.7818608E-02  0.1745318E+00
          4   -1    0    0  501    0  0.00000000000E+00  0.00000000000E+00  0.57565480497E+00  0.15322462121E+01  0.14200000000E+01 0. -1.
         -4   -1    0    0    0  501 -0.00000000000E+00 -0.00000000000E+00 -0.93921299665E+02  0.93932033571E+02  0.14200000000E+01 0.  1.
       1023    2    1    2    0    0  0.00000000000E+00  0.00000000000E+00 -0.93345644860E+02  0.95464279783E+02  0.20000482498E+02 0.  0.
        -11    1    3    3    0    0  0.28285926430E+00 -0.99962399873E+01 -0.46666917640E+02  0.47726366146E+02  0.51100000000E-03 0.  1.
         11    1    3    3    0    0 -0.28285926430E+00  0.99962399873E+01 -0.46678727220E+02  0.47737913637E+02  0.51100000000E-03 0. -1.
<mgrwt>
<rscale>  0 0.20000482E+02</rscale>
<asrwt>0</asrwt>
<pdfrwt beam="1">  1        4 0.16297199E-03 0.20000482E+02</pdfrwt>
<pdfrwt beam="2">  1       -4 0.14523834E-01 0.20000482E+02</pdfrwt>
<totfact> 0.99318766E+05</totfact>
</mgrwt>
</event>
<event>
 5    1  0.1154861E-006  0.2000068E+02  0.7818608E-02  0.1745314E+00
         -4   -1    0    0    0  501 -0.00000000000E+00  0.00000000000E+00  0.13695816297E+01  0.19728542370E+01  0.14200000000E+01 0.  1.
          4   -1    0    0  501    0  0.00000000000E+00 -0.00000000000E+00 -0.59227375371E+02  0.59244395459E+02  0.14200000000E+01 0. -1.
       1023    2    1    2    0    0  0.00000000000E+00  0.00000000000E+00 -0.57857793741E+02  0.61217249696E+02  0.20000684083E+02 0.  0.
        -11    1    3    3    0    0  0.91590486499E+01  0.40146661299E+01 -0.28826264382E+02  0.30511624585E+02  0.51100000000E-03 0.  1.
         11    1    3    3    0    0 -0.91590486499E+01 -0.40146661299E+01 -0.29031529359E+02  0.30705625111E+02  0.51100000000E-03 0. -1.
<mgrwt>
<rscale>  0 0.20000684E+02</rscale>
<asrwt>0</asrwt>
<pdfrwt beam="2">  1        4 0.91596171E-02 0.20000684E+02</pdfrwt>
<pdfrwt beam="1">  1       -4 0.25841973E-03 0.20000684E+02</pdfrwt>
<totfact> 0.11071605E+06</totfact>
</mgrwt>
</event>
<event>
 5    1  0.1154861E-006  0.2000203E+02  0.7818608E-02  0.1745288E+00
          4   -1    0    0  501    0  0.00000000000E+00  0.00000000000E+00  0.97421252438E+00  0.17220598255E+01  0.14200000000E+01 0.  1.
         -4   -1    0    0    0  501 -0.00000000000E+00 -0.00000000000E+00 -0.73434918137E+02  0.73448646017E+02  0.14200000000E+01 0. -1.
       1023    2    1    2    0    0  0.00000000000E+00  0.00000000000E+00 -0.72460705612E+02  0.75170705843E+02  0.20002028873E+02 0.  0.
        -11    1    3    3    0    0  0.81211857634E+01  0.58361322203E+01 -0.35934626388E+02  0.37300287820E+02  0.51100000000E-03 0.  1.
         11    1    3    3    0    0 -0.81211857634E+01 -0.58361322203E+01 -0.36526079224E+02  0.37870418023E+02  0.51100000000E-03 0. -1.
<mgrwt>
<rscale>  0 0.20002029E+02</rscale>
<asrwt>0</asrwt>
<pdfrwt beam="1">  1        4 0.20846161E-03 0.20002029E+02</pdfrwt>
<pdfrwt beam="2">  1       -4 0.11356259E-01 0.20002029E+02</pdfrwt>
<totfact> 0.10569773E+06</totfact>
</mgrwt>
</event>
<event>
 5    1  0.1154861E-006  0.2000417E+02  0.7818608E-02  0.1745245E+00
         -4   -1    0    0    0  501 -0.00000000000E+00  0.00000000000E+00  0.12308021712E+02  0.12389664986E+02  0.14200000000E+01 0. -1.
          4   -1    0    0  501    0  0.00000000000E+00 -0.00000000000E+00 -0.79565916612E+01  0.80823109853E+01  0.14200000000E+01 0.  1.
       1023    2    1    2    0    0  0.00000000000E+00  0.00000000000E+00  0.43514300510E+01  0.20471975971E+02  0.20004170982E+02 0.  0.
        -11    1    3    3    0    0 -0.85538989564E+01  0.51836615199E+01  0.22234951960E+01  0.10246143921E+02  0.51100000000E-03 0. -1.
         11    1    3    3    0    0  0.85538989564E+01 -0.51836615199E+01  0.21279348550E+01  0.10225832050E+02  0.51100000000E-03 0.  1.
<mgrwt>
<rscale>  0 0.20004171E+02</rscale>
<asrwt>0</asrwt>
<pdfrwt beam="2">  1        4 0.12400420E-02 0.20004171E+02</pdfrwt>
<pdfrwt beam="1">  1       -4 0.19094928E-02 0.20004171E+02</pdfrwt>
<totfact> 0.12980456E+06</totfact>
</mgrwt>
</event>
<event>
 5    1  0.1170870E-006  0.2000188E+02  0.7818608E-02  0.1745291E+00
         -4   -1    0    0    0  501 -0.00000000000E+00  0.00000000000E+00  0.15545380721E+02  0.15610101273E+02  0.14200000000E+01 0.  1.
          4   -1    0    0  501    0  0.00000000000E+00 -0.00000000000E+00 -0.62764215313E+01  0.64350499018E+01  0.14200000000E+01 0. -1.
       1023    2    1    2    0    0  0.00000000000E+00  0.00000000000E+00  0.92689591894E+01  0.22045151175E+02  0.20001877058E+02 0.  0.
        -11    1    3    3    0    0 -0.98739406582E+01  0.15870970828E+01  0.45550791073E+01  0.10989191381E+02  0.51100000000E-03 0. -1.
         11    1    3    3    0    0  0.98739406582E+01 -0.15870970828E+01  0.47138800821E+01  0.11055959794E+02  0.51100000000E-03 0.  1.
<mgrwt>
<rscale>  0 0.20001877E+02</rscale>
<asrwt>0</asrwt>
<pdfrwt beam="2">  1        4 0.98278401E-03 0.20001877E+02</pdfrwt>
<pdfrwt beam="1">  1       -4 0.24087777E-02 0.20001877E+02</pdfrwt>
<totfact> 0.12891136E+06</totfact>
</mgrwt>
</event>
<event>
 5    1  0.1154861E-006  0.2000288E+02  0.7818608E-02  0.1745271E+00
          4   -1    0    0  501    0  0.00000000000E+00  0.00000000000E+00  0.16004697794E+01  0.21396035883E+01  0.14200000000E+01 0.  1.
         -4   -1    0    0    0  501 -0.00000000000E+00 -0.00000000000E+00 -0.52940265158E+02  0.52959305840E+02  0.14200000000E+01 0. -1.
       1023    2    1    2    0    0  0.00000000000E+00  0.00000000000E+00 -0.51339795379E+02  0.55098909428E+02  0.20002880558E+02 0.  0.
        -11    1    3    3    0    0 -0.93829320310E+01 -0.34613889959E+01 -0.25420765318E+02  0.27317319357E+02  0.51100000000E-03 0. -1.
         11    1    3    3    0    0  0.93829320310E+01  0.34613889959E+01 -0.25919030061E+02  0.27781590071E+02  0.51100000000E-03 0.  1.
<mgrwt>
<rscale>  0 0.20002881E+02</rscale>
<asrwt>0</asrwt>
<pdfrwt beam="1">  1        4 0.28916266E-03 0.20002881E+02</pdfrwt>
<pdfrwt beam="2">  1       -4 0.81875915E-02 0.20002881E+02</pdfrwt>
<totfact> 0.11307664E+06</totfact>
</mgrwt>
</event>
<event>
 5    1  0.1154861E-006  0.2000010E+02  0.7818608E-02  0.1745326E+00
         -4   -1    0    0    0  501 -0.00000000000E+00  0.00000000000E+00  0.49476606573E+01  0.51474018670E+01  0.14200000000E+01 0.  1.
          4   -1    0    0  501    0  0.00000000000E+00 -0.00000000000E+00 -0.19585903125E+02  0.19637311457E+02  0.14200000000E+01 0. -1.
       1023    2    1    2    0    0  0.00000000000E+00  0.00000000000E+00 -0.14638242468E+02  0.24784713323E+02  0.20000096799E+02 0.  0.
        -11    1    3    3    0    0  0.98596412779E+01 -0.16698610221E+01 -0.73161447672E+01  0.12390598713E+02  0.51100000000E-03 0.  1.
         11    1    3    3    0    0 -0.98596412779E+01  0.16698610221E+01 -0.73220977010E+01  0.12394114610E+02  0.51100000000E-03 0. -1.
<mgrwt>
<rscale>  0 0.20000097E+02</rscale>
<asrwt>0</asrwt>
<pdfrwt beam="2">  1        4 0.30325350E-02 0.20000097E+02</pdfrwt>
<pdfrwt beam="1">  1       -4 0.78049777E-03 0.20000097E+02</pdfrwt>
<totfact> 0.12737504E+06</totfact>
</mgrwt>
</event>
<event>
 5    1  0.1154861E-006  0.2000026E+02  0.7818608E-02  0.1745323E+00
          4   -1    0    0  501    0  0.00000000000E+00  0.00000000000E+00  0.21924101084E+01  0.26120991719E+01  0.14200000000E+01 0. -1.
         -4   -1    0    0    0  501 -0.00000000000E+00 -0.00000000000E+00 -0.41195670850E+02  0.41220137030E+02  0.14200000000E+01 0.  1.
       1023    2    1    2    0    0  0.00000000000E+00  0.00000000000E+00 -0.39003260742E+02  0.43832236202E+02  0.20000264548E+02 0.  0.
        -11    1    3    3    0    0 -0.93105545659E+01  0.36491259115E+01 -0.19523435851E+02  0.21935521282E+02  0.51100000000E-03 0. -1.
         11    1    3    3    0    0  0.93105545659E+01 -0.36491259115E+01 -0.19479824891E+02  0.21896714920E+02  0.51100000000E-03 0.  1.
<mgrwt>
<rscale>  0 0.20000265E+02</rscale>
<asrwt>0</asrwt>
<pdfrwt beam="1">  1        4 0.37145968E-03 0.20000265E+02</pdfrwt>
<pdfrwt beam="2">  1       -4 0.63719608E-02 0.20000265E+02</pdfrwt>
<totfact> 0.11787442E+06</totfact>
</mgrwt>
</event>
<event>
 5    1  0.1154861E-006  0.2000033E+02  0.7818608E-02  0.1745321E+00
          4   -1    0    0  501    0  0.00000000000E+00  0.00000000000E+00  0.35389430836E+02  0.35417908110E+02  0.14200000000E+01 0.  1.
         -4   -1    0    0    0  501 -0.00000000000E+00 -0.00000000000E+00 -0.26158241243E+01  0.29763964537E+01  0.14200000000E+01 0. -1.
       1023    2    1    2    0    0  0.00000000000E+00  0.00000000000E+00  0.32773606712E+02  0.38394304564E+02  0.20000333148E+02 0.  0.
        -11    1    3    3    0    0  0.45698307996E+01  0.88947804901E+01  0.16489425588E+02  0.19284751230E+02  0.51100000000E-03 0.  1.
         11    1    3    3    0    0 -0.45698307996E+01 -0.88947804901E+01  0.16284181124E+02  0.19109553334E+02  0.51100000000E-03 0. -1.
<mgrwt>
<rscale>  0 0.20000333E+02</rscale>
<asrwt>0</asrwt>
<pdfrwt beam="1">  1        4 0.54744547E-02 0.20000333E+02</pdfrwt>
<pdfrwt beam="2">  1       -4 0.43236138E-03 0.20000333E+02</pdfrwt>
<totfact> 0.12037605E+06</totfact>
</mgrwt>
</event>
<event>
 5    1  0.1154861E-006  0.2000629E+02  0.7818608E-02  0.1745203E+00
         -4   -1    0    0    0  501 -0.00000000000E+00  0.00000000000E+00  0.21308089205E+02  0.21355352153E+02  0.14200000000E+01 0. -1.
          4   -1    0    0  501    0  0.00000000000E+00 -0.00000000000E+00 -0.45348590657E+01  0.47519834538E+01  0.14200000000E+01 0.  1.
       1023    2    1    2    0    0  0.00000000000E+00  0.00000000000E+00  0.16773230139E+02  0.26107335607E+02  0.20006292089E+02 0.  0.
        -11    1    3    3    0    0 -0.80500959712E+01 -0.59378234320E+01  0.84306421352E+01  0.13081953957E+02  0.51100000000E-03 0. -1.
         11    1    3    3    0    0  0.80500959712E+01  0.59378234320E+01  0.83425880042E+01  0.13025381650E+02  0.51100000000E-03 0.  1.
<mgrwt>
<rscale>  0 0.20006292E+02</rscale>
<asrwt>0</asrwt>
<pdfrwt beam="2">  1        4 0.71800812E-03 0.20006292E+02</pdfrwt>
<pdfrwt beam="1">  1       -4 0.32985050E-02 0.20006292E+02</pdfrwt>
<totfact> 0.12656158E+06</totfact>
</mgrwt>
</event>
<event>
 5    1  0.1154861E-006  0.2000145E+02  0.7818608E-02  0.1745299E+00
          4   -1    0    0  501    0  0.00000000000E+00  0.00000000000E+00  0.18448413950E+01  0.23280549334E+01  0.14200000000E+01 0.  1.
         -4   -1    0    0    0  501 -0.00000000000E+00 -0.00000000000E+00 -0.47440233494E+02  0.47461480740E+02  0.14200000000E+01 0. -1.
       1023    2    1    2    0    0  0.00000000000E+00  0.00000000000E+00 -0.45595392099E+02  0.49789535673E+02  0.20001451993E+02 0.  0.
        -11    1    3    3    0    0 -0.96858864417E+01 -0.24881897094E+01 -0.23006500477E+02  0.25085983111E+02  0.51100000000E-03 0.  1.
         11    1    3    3    0    0  0.96858864417E+01  0.24881897094E+01 -0.22588891623E+02  0.24703552562E+02  0.51100000000E-03 0. -1.
<mgrwt>
<rscale>  0 0.20001452E+02</rscale>
<asrwt>0</asrwt>
<pdfrwt beam="1">  1        4 0.32262646E-03 0.20001452E+02</pdfrwt>
<pdfrwt beam="2">  1       -4 0.73373013E-02 0.20001452E+02</pdfrwt>
<totfact> 0.11527388E+06</totfact>
</mgrwt>
</event>
<event>
 5    1  0.1154861E-006  0.2000207E+02  0.7818608E-02  0.1745287E+00
         -4   -1    0    0    0  501 -0.00000000000E+00  0.00000000000E+00  0.35490576551E+00  0.14636796447E+01  0.14200000000E+01 0.  1.
          4   -1    0    0  501    0  0.00000000000E+00 -0.00000000000E+00 -0.10888209429E+03  0.10889135346E+03  0.14200000000E+01 0. -1.
       1023    2    1    2    0    0  0.00000000000E+00  0.00000000000E+00 -0.10852718853E+03  0.11035503310E+03  0.20002066922E+02 0.  0.
        -11    1    3    3    0    0  0.83557734047E+01 -0.54956061418E+01 -0.54231439416E+02  0.55145894294E+02  0.51100000000E-03 0. -1.
         11    1    3    3    0    0 -0.83557734047E+01  0.54956061418E+01 -0.54295749112E+02  0.55209138808E+02  0.51100000000E-03 0.  1.
<mgrwt>
<rscale>  0 0.20002067E+02</rscale>
<asrwt>0</asrwt>
<pdfrwt beam="2">  1        4 0.16837084E-01 0.20002067E+02</pdfrwt>
<pdfrwt beam="1">  1       -4 0.14060352E-03 0.20002067E+02</pdfrwt>
<totfact> 0.95138578E+05</totfact>
</mgrwt>
</event>
<event>
 5    1  0.1154861E-006  0.2000186E+02  0.7818608E-02  0.1745291E+00
          4   -1    0    0  501    0  0.00000000000E+00  0.00000000000E+00  0.48908377766E+02  0.48928987479E+02  0.14200000000E+01 0. -1.
         -4   -1    0    0    0  501 -0.00000000000E+00 -0.00000000000E+00 -0.17748563622E+01  0.22729969438E+01  0.14200000000E+01 0.  1.
       1023    2    1    2    0    0  0.00000000000E+00  0.00000000000E+00  0.47133521404E+02  0.51201984423E+02  0.20001859136E+02 0.  0.
        -11    1    3    3    0    0 -0.17340746087E+01  0.98492891059E+01  0.23708857717E+02  0.25731798328E+02  0.51100000000E-03 0. -1.
         11    1    3    3    0    0  0.17340746087E+01 -0.98492891059E+01  0.23424663687E+02  0.25470186096E+02  0.51100000000E-03 0.  1.
<mgrwt>
<rscale>  0 0.20001859E+02</rscale>
<asrwt>0</asrwt>
<pdfrwt beam="1">  1        4 0.75642703E-02 0.20001859E+02</pdfrwt>
<pdfrwt beam="2">  1       -4 0.31295867E-03 0.20001859E+02</pdfrwt>
<totfact> 0.11467810E+06</totfact>
</mgrwt>
</event>
<event>
 5    1  0.1178181E-006  0.2000073E+02  0.7818608E-02  0.1745314E+00
         -4   -1    0    0    0  501 -0.00000000000E+00  0.00000000000E+00  0.21345293333E+02  0.21392474085E+02  0.14200000000E+01 0. -1.
          4   -1    0    0  501    0  0.00000000000E+00 -0.00000000000E+00 -0.45239281416E+01  0.47415531032E+01  0.14200000000E+01 0.  1.
       1023    2    1    2    0    0  0.00000000000E+00  0.00000000000E+00  0.16821365192E+02  0.26134027189E+02  0.20000726241E+02 0.  0.
        -11    1    3    3    0    0 -0.47431331555E+01 -0.88035850685E+01  0.83026159743E+01  0.12997455692E+02  0.51100000000E-03 0. -1.
         11    1    3    3    0    0  0.47431331555E+01  0.88035850685E+01  0.85187492176E+01  0.13136571497E+02  0.51100000000E-03 0.  1.
<mgrwt>
<rscale>  0 0.20000726E+02</rscale>
<asrwt>0</asrwt>
<pdfrwt beam="2">  1        4 0.71635861E-03 0.20000726E+02</pdfrwt>
<pdfrwt beam="1">  1       -4 0.33042610E-02 0.20000726E+02</pdfrwt>
<totfact> 0.12661861E+06</totfact>
</mgrwt>
</event>
<event>
 5    1  0.1197574E-006  0.2000098E+02  0.7818608E-02  0.1745309E+00
         -4   -1    0    0    0  501 -0.00000000000E+00  0.00000000000E+00  0.10219810363E+02  0.10317990302E+02  0.14200000000E+01 0. -1.
          4   -1    0    0  501    0  0.00000000000E+00 -0.00000000000E+00 -0.95883772405E+01  0.96929550761E+01  0.14200000000E+01 0.  1.
       1023    2    1    2    0    0  0.00000000000E+00  0.00000000000E+00  0.63143312278E+00  0.20010945378E+02  0.20000980654E+02 0.  0.
        -11    1    3    3    0    0  0.66089269977E+01 -0.75054001797E+01  0.34503302369E+00  0.10006397752E+02  0.51100000000E-03 0. -1.
         11    1    3    3    0    0 -0.66089269977E+01  0.75054001797E+01  0.28640009909E+00  0.10004547626E+02  0.51100000000E-03 0.  1.
<mgrwt>
<rscale>  0 0.20000981E+02</rscale>
<asrwt>0</asrwt>
<pdfrwt beam="2">  1        4 0.14907317E-02 0.20000981E+02</pdfrwt>
<pdfrwt beam="1">  1       -4 0.15878753E-02 0.20000981E+02</pdfrwt>
<totfact> 0.13012092E+06</totfact>
</mgrwt>
</event>
<event>
 5    1  0.1154861E-006  0.2000132E+02  0.7818608E-02  0.1745302E+00
         -4   -1    0    0    0  501 -0.00000000000E+00  0.00000000000E+00  0.98724155793E+00  0.17294640481E+01  0.14200000000E+01 0.  1.
          4   -1    0    0  501    0  0.00000000000E+00 -0.00000000000E+00 -0.72877234257E+02  0.72891067169E+02  0.14200000000E+01 0. -1.
       1023    2    1    2    0    0  0.00000000000E+00  0.00000000000E+00 -0.71889992699E+02  0.74620531217E+02  0.20001315676E+02 0.  0.
        -11    1    3    3    0    0 -0.76621055832E+01 -0.64261485686E+01 -0.36316383119E+02  0.37668062473E+02  0.51100000000E-03 0. -1.
         11    1    3    3    0    0  0.76621055832E+01  0.64261485686E+01 -0.35573609580E+02  0.36952468743E+02  0.51100000000E-03 0.  1.
<mgrwt>
<rscale>  0 0.20001316E+02</rscale>
<asrwt>0</asrwt>
<pdfrwt beam="2">  1        4 0.11270037E-01 0.20001316E+02</pdfrwt>
<pdfrwt beam="1">  1       -4 0.21004148E-03 0.20001316E+02</pdfrwt>
<totfact> 0.10589219E+06</totfact>
</mgrwt>
</event>
<event>
 5    1  0.1154861E-006  0.2000556E+02  0.7818608E-02  0.1745217E+00
          4   -1    0    0  501    0  0.00000000000E+00  0.00000000000E+00  0.17220620243E+01  0.22320164909E+01  0.14200000000E+01 0. -1.
         -4   -1    0    0    0  501 -0.00000000000E+00 -0.00000000000E+00 -0.50087506447E+02  0.50107631176E+02  0.14200000000E+01 0.  1.
       1023    2    1    2    0    0  0.00000000000E+00  0.00000000000E+00 -0.48365444422E+02  0.52339647667E+02  0.20005561819E+02 0.  0.
        -11    1    3    3    0    0 -0.62167146912E+01 -0.78328561562E+01 -0.23572239746E+02  0.25605695929E+02  0.51100000000E-03 0. -1.
         11    1    3    3    0    0  0.62167146912E+01  0.78328561562E+01 -0.24793204677E+02  0.26733951738E+02  0.51100000000E-03 0.  1.
<mgrwt>
<rscale>  0 0.20005562E+02</rscale>
<asrwt>0</asrwt>
<pdfrwt beam="1">  1        4 0.30570798E-03 0.20005562E+02</pdfrwt>
<pdfrwt beam="2">  1       -4 0.77465446E-02 0.20005562E+02</pdfrwt>
<totfact> 0.11416529E+06</totfact>
</mgrwt>
</event>
<event>
 5    1  0.1154861E-006  0.2000411E+02  0.7818608E-02  0.1745246E+00
          4   -1    0    0  501    0  0.00000000000E+00  0.00000000000E+00  0.94991608838E+01  0.96047101725E+01  0.14200000000E+01 0.  1.
         -4   -1    0    0    0  501 -0.00000000000E+00 -0.00000000000E+00 -0.10318940950E+02  0.10416186554E+02  0.14200000000E+01 0. -1.
       1023    2    1    2    0    0  0.00000000000E+00  0.00000000000E+00 -0.81978006628E+00  0.20020896727E+02  0.20004106238E+02 0.  0.
        -11    1    3    3    0    0  0.28908693180E+01 -0.95750636738E+01 -0.36406335005E+00  0.10008571934E+02  0.51100000000E-03 0.  1.
         11    1    3    3    0    0 -0.28908693180E+01  0.95750636738E+01 -0.45571671623E+00  0.10012324793E+02  0.51100000000E-03 0. -1.
<mgrwt>
<rscale>  0 0.20004106E+02</rscale>
<asrwt>0</asrwt>
<pdfrwt beam="1">  1        4 0.14770090E-02 0.20004106E+02</pdfrwt>
<pdfrwt beam="2">  1       -4 0.16031290E-02 0.20004106E+02</pdfrwt>
<totfact> 0.13007351E+06</totfact>
</mgrwt>
</event>
<event>
 4    1  0.1154861E-006  0.2003313E+02  0.7818608E-02  0.1744670E+00
          4   -1    0    0  501    0  0.00000000000E+00  0.00000000000E+00  0.75000263083E+01  0.76332689344E+01  0.14200000000E+01 0. -1.
         -4   -1    0    0    0  501 -0.00000000000E+00 -0.00000000000E+00 -0.13087729554E+02  0.13164538157E+02  0.14200000000E+01 0.  1.
        -11    1    1    2    0    0 -0.61845126300E+01  0.78789681066E+01 -0.27186082117E+01  0.10378688056E+02  0.51100000000E-03 0.  1.
         11    1    1    2    0    0  0.61845126300E+01 -0.78789681066E+01 -0.28690950344E+01  0.10419119035E+02  0.51100000000E-03 0. -1.
<mgrwt>
<rscale>  0 0.20033131E+02</rscale>
<asrwt>0</asrwt>
<pdfrwt beam="1">  1        4 0.11700080E-02 0.20033131E+02</pdfrwt>
<pdfrwt beam="2">  1       -4 0.20296546E-02 0.20033131E+02</pdfrwt>
<totfact> 0.12922980E+06</totfact>
</mgrwt>
</event>
<event>
 5    1  0.1154861E-006  0.2000034E+02  0.7818608E-02  0.1745321E+00
          4   -1    0    0  501    0  0.00000000000E+00  0.00000000000E+00  0.86521215753E+01  0.87678736165E+01  0.14200000000E+01 0. -1.
         -4   -1    0    0    0  501 -0.00000000000E+00 -0.00000000000E+00 -0.11321053282E+02  0.11409761059E+02  0.14200000000E+01 0.  1.
       1023    2    1    2    0    0  0.00000000000E+00  0.00000000000E+00 -0.26689317067E+01  0.20177634675E+02  0.20000343613E+02 0.  0.
        -11    1    3    3    0    0  0.99932760108E+01 -0.36989721698E+00 -0.13671025206E+01  0.10093134248E+02  0.51100000000E-03 0. -1.
         11    1    3    3    0    0 -0.99932760108E+01  0.36989721698E+00 -0.13018291861E+01  0.10084500427E+02  0.51100000000E-03 0.  1.
<mgrwt>
<rscale>  0 0.20000344E+02</rscale>
<asrwt>0</asrwt>
<pdfrwt beam="1">  1        4 0.13468233E-02 0.20000344E+02</pdfrwt>
<pdfrwt beam="2">  1       -4 0.17574282E-02 0.20000344E+02</pdfrwt>
<totfact> 0.13003021E+06</totfact>
</mgrwt>
</event>
<event>
 5    1  0.1154861E-006  0.2000033E+02  0.7818608E-02  0.1745321E+00
          4   -1    0    0  501    0  0.00000000000E+00  0.00000000000E+00  0.69736326454E+01  0.71167374739E+01  0.14200000000E+01 0.  1.
         -4   -1    0    0    0  501 -0.00000000000E+00 -0.00000000000E+00 -0.14015216519E+02  0.14086968945E+02  0.14200000000E+01 0. -1.
       1023    2    1    2    0    0  0.00000000000E+00  0.00000000000E+00 -0.70415838733E+01  0.21203706419E+02  0.20000331559E+02 0.  0.
        -11    1    3    3    0    0 -0.95063463163E+00 -0.99548352566E+01 -0.34896264894E+01  0.10591503410E+02  0.51100000000E-03 0.  1.
         11    1    3    3    0    0  0.95063463163E+00  0.99548352566E+01 -0.35519573838E+01  0.10612203009E+02  0.51100000000E-03 0. -1.
<mgrwt>
<rscale>  0 0.20000332E+02</rscale>
<asrwt>0</asrwt>
<pdfrwt beam="1">  1        4 0.10893940E-02 0.20000332E+02</pdfrwt>
<pdfrwt beam="2">  1       -4 0.21727146E-02 0.20000332E+02</pdfrwt>
<totfact> 0.12942310E+06</totfact>
</mgrwt>
</event>
<event>
 5    1  0.1154861E-006  0.2000084E+02  0.7818608E-02  0.1745311E+00
          4   -1    0    0  501    0  0.00000000000E+00  0.00000000000E+00  0.10138230313E+03  0.10139224718E+03  0.14200000000E+01 0. -1.
         -4   -1    0    0    0  501 -0.00000000000E+00 -0.00000000000E+00 -0.46016290571E+00  0.14926988644E+01  0.14200000000E+01 0.  1.
       1023    2    1    2    0    0  0.00000000000E+00  0.00000000000E+00  0.10092214023E+03  0.10288494605E+03  0.20000843353E+02 0.  0.
        -11    1    3    3    0    0  0.19789948742E+01 -0.98026487717E+01  0.50509815647E+02  0.51490288605E+02  0.51100000000E-03 0. -1.
         11    1    3    3    0    0 -0.19789948742E+01  0.98026487717E+01  0.50412324580E+02  0.51394657441E+02  0.51100000000E-03 0.  1.
<mgrwt>
<rscale>  0 0.20000843E+02</rscale>
<asrwt>0</asrwt>
<pdfrwt beam="1">  1        4 0.15677464E-01 0.20000843E+02</pdfrwt>
<pdfrwt beam="2">  1       -4 0.15098511E-03 0.20000843E+02</pdfrwt>
<totfact> 0.97190480E+05</totfact>
</mgrwt>
</event>
<event>
 5    1  0.1172564E-006  0.2000141E+02  0.7818608E-02  0.1745300E+00
          4   -1    0    0  501    0  0.00000000000E+00  0.00000000000E+00  0.21572916933E+01  0.25826938359E+01  0.14200000000E+01 0. -1.
         -4   -1    0    0    0  501 -0.00000000000E+00 -0.00000000000E+00 -0.41761608899E+02  0.41785743715E+02  0.14200000000E+01 0.  1.
       1023    2    1    2    0    0  0.00000000000E+00  0.00000000000E+00 -0.39604317206E+02  0.44368437551E+02  0.20001407686E+02 0.  0.
        -11    1    3    3    0    0 -0.50137721837E+01 -0.86530999288E+01 -0.19813728248E+02  0.22194546115E+02  0.51100000000E-03 0. -1.
         11    1    3    3    0    0  0.50137721837E+01  0.86530999288E+01 -0.19790588958E+02  0.22173891437E+02  0.51100000000E-03 0.  1.
<mgrwt>
<rscale>  0 0.20001408E+02</rscale>
<asrwt>0</asrwt>
<pdfrwt beam="1">  1        4 0.36647083E-03 0.20001408E+02</pdfrwt>
<pdfrwt beam="2">  1       -4 0.64594421E-02 0.20001408E+02</pdfrwt>
<totfact> 0.11762152E+06</totfact>
</mgrwt>
</event>
<event>
 5    1  0.1154861E-006  0.2000308E+02  0.7818608E-02  0.1745267E+00
          4   -1    0    0  501    0  0.00000000000E+00  0.00000000000E+00  0.15263919910E+01  0.20847715727E+01  0.14200000000E+01 0.  1.
         -4   -1    0    0    0  501 -0.00000000000E+00 -0.00000000000E+00 -0.54831853912E+02  0.54850237953E+02  0.14200000000E+01 0. -1.
       1023    2    1    2    0    0  0.00000000000E+00  0.00000000000E+00 -0.53305461921E+02  0.56935009525E+02  0.20003075739E+02 0.  0.
        -11    1    3    3    0    0 -0.88752014951E+01  0.46079758565E+01 -0.26175462652E+02  0.28020661812E+02  0.51100000000E-03 0. -1.
         11    1    3    3    0    0  0.88752014951E+01 -0.46079758565E+01 -0.27129999270E+02  0.28914347714E+02  0.51100000000E-03 0.  1.
<mgrwt>
<rscale>  0 0.20003076E+02</rscale>
<asrwt>0</asrwt>
<pdfrwt beam="1">  1        4 0.27919601E-03 0.20003076E+02</pdfrwt>
<pdfrwt beam="2">  1       -4 0.84800350E-02 0.20003076E+02</pdfrwt>
<totfact> 0.11234517E+06</totfact>
</mgrwt>
</event>
<event>
 5    1  0.1154861E-006  0.2000509E+02  0.7818608E-02  0.1745227E+00
          4   -1    0    0  501    0  0.00000000000E+00  0.00000000000E+00  0.45543437669E+01  0.47705814265E+01  0.14200000000E+01 0. -1.
         -4   -1    0    0    0  501 -0.00000000000E+00 -0.00000000000E+00 -0.21218297590E+02  0.21265760100E+02  0.14200000000E+01 0.  1.
       1023    2    1    2    0    0  0.00000000000E+00  0.00000000000E+00 -0.16663953823E+02  0.26036341526E+02  0.20005092428E+02 0.  0.
        -11    1    3    3    0    0 -0.85578088937E+01 -0.51773849497E+01 -0.84589803329E+01  0.13099456344E+02  0.51100000000E-03 0. -1.
         11    1    3    3    0    0  0.85578088937E+01  0.51773849497E+01 -0.82049734903E+01  0.12936885182E+02  0.51100000000E-03 0.  1.
<mgrwt>
<rscale>  0 0.20005092E+02</rscale>
<asrwt>0</asrwt>
<pdfrwt beam="1">  1        4 0.72095291E-03 0.20005092E+02</pdfrwt>
<pdfrwt beam="2">  1       -4 0.32846380E-02 0.20005092E+02</pdfrwt>
<totfact> 0.12661605E+06</totfact>
</mgrwt>
</event>
<event>
 5    1  0.1217093E-006  0.2000115E+02  0.7818608E-02  0.1745305E+00
         -4   -1    0    0    0  501 -0.00000000000E+00  0.00000000000E+00  0.77208771738E+01  0.78503722417E+01  0.14200000000E+01 0.  1.
          4   -1    0    0  501    0  0.00000000000E+00 -0.00000000000E+00 -0.12676194721E+02  0.12755481669E+02  0.14200000000E+01 0. -1.
       1023    2    1    2    0    0  0.00000000000E+00  0.00000000000E+00 -0.49553175476E+01  0.20605853911E+02  0.20001151052E+02 0.  0.
        -11    1    3    3    0    0 -0.46791142152E+01  0.88383710761E+01 -0.24524765280E+01  0.10296871102E+02  0.51100000000E-03 0.  1.
         11    1    3    3    0    0  0.46791142152E+01 -0.88383710761E+01 -0.25028410196E+01  0.10308982809E+02  0.51100000000E-03 0. -1.
<mgrwt>
<rscale>  0 0.20001151E+02</rscale>
<asrwt>0</asrwt>
<pdfrwt beam="2">  1        4 0.19662440E-02 0.20001151E+02</pdfrwt>
<pdfrwt beam="1">  1       -4 0.12038874E-02 0.20001151E+02</pdfrwt>
<totfact> 0.12976536E+06</totfact>
</mgrwt>
</event>
<event>
 5    1  0.1154861E-006  0.2000332E+02  0.7818608E-02  0.1745262E+00
          4   -1    0    0  501    0  0.00000000000E+00  0.00000000000E+00  0.31116191992E+02  0.31148576277E+02  0.14200000000E+01 0. -1.
         -4   -1    0    0    0  501 -0.00000000000E+00 -0.00000000000E+00 -0.30222027099E+01  0.33391779257E+01  0.14200000000E+01 0.  1.
       1023    2    1    2    0    0  0.00000000000E+00  0.00000000000E+00  0.28093989282E+02  0.34487754202E+02  0.20003323628E+02 0.  0.
        -11    1    3    3    0    0 -0.43900918293E+01  0.89865658680E+01  0.13970540713E+02  0.17181597145E+02  0.51100000000E-03 0.  1.
         11    1    3    3    0    0  0.43900918293E+01 -0.89865658680E+01  0.14123448569E+02  0.17306157058E+02  0.51100000000E-03 0. -1.
<mgrwt>
<rscale>  0 0.20003324E+02</rscale>
<asrwt>0</asrwt>
<pdfrwt beam="1">  1        4 0.48139802E-02 0.20003324E+02</pdfrwt>
<pdfrwt beam="2">  1       -4 0.49182808E-03 0.20003324E+02</pdfrwt>
<totfact> 0.12223181E+06</totfact>
</mgrwt>
</event>
<event>
 5    1  0.1180731E-006  0.2000157E+02  0.7818608E-02  0.1745297E+00
         -4   -1    0    0    0  501 -0.00000000000E+00  0.00000000000E+00  0.13690217124E+02  0.13763663935E+02  0.14200000000E+01 0.  1.
          4   -1    0    0  501    0  0.00000000000E+00 -0.00000000000E+00 -0.71425599052E+01  0.72823459132E+01  0.14200000000E+01 0. -1.
       1023    2    1    2    0    0  0.00000000000E+00  0.00000000000E+00  0.65476572191E+01  0.21046009848E+02  0.20001567825E+02 0.  0.
        -11    1    3    3    0    0 -0.92581597285E+01  0.37817576811E+01  0.32511170766E+01  0.10515939103E+02  0.51100000000E-03 0. -1.
         11    1    3    3    0    0  0.92581597285E+01 -0.37817576811E+01  0.32965401425E+01  0.10530070745E+02  0.51100000000E-03 0.  1.
<mgrwt>
<rscale>  0 0.20001568E+02</rscale>
<asrwt>0</asrwt>
<pdfrwt beam="2">  1        4 0.11152579E-02 0.20001568E+02</pdfrwt>
<pdfrwt beam="1">  1       -4 0.21225897E-02 0.20001568E+02</pdfrwt>
<totfact> 0.12949964E+06</totfact>
</mgrwt>
</event>
<event>
 5    1  0.1154861E-006  0.2000424E+02  0.7818608E-02  0.1745244E+00
         -4   -1    0    0    0  501 -0.00000000000E+00  0.00000000000E+00  0.14233242682E+02  0.14303901470E+02  0.14200000000E+01 0. -1.
          4   -1    0    0  501    0  0.00000000000E+00 -0.00000000000E+00 -0.68679105075E+01  0.70131729437E+01  0.14200000000E+01 0.  1.
       1023    2    1    2    0    0  0.00000000000E+00  0.00000000000E+00  0.73653321749E+01  0.21317074413E+02  0.20004238138E+02 0.  0.
        -11    1    3    3    0    0  0.82845010977E+01 -0.56044067882E+01  0.36750018458E+01  0.10655889109E+02  0.51100000000E-03 0. -1.
         11    1    3    3    0    0 -0.82845010977E+01  0.56044067882E+01  0.36903303291E+01  0.10661185304E+02  0.51100000000E-03 0.  1.
<mgrwt>
<rscale>  0 0.20004238E+02</rscale>
<asrwt>0</asrwt>
<pdfrwt beam="2">  1        4 0.10732110E-02 0.20004238E+02</pdfrwt>
<pdfrwt beam="1">  1       -4 0.22063389E-02 0.20004238E+02</pdfrwt>
<totfact> 0.12930496E+06</totfact>
</mgrwt>
</event>
<event>
 5    1  0.1154861E-006  0.2000190E+02  0.7818608E-02  0.1745290E+00
         -4   -1    0    0    0  501 -0.00000000000E+00  0.00000000000E+00  0.89329188365E+01  0.90450781611E+01  0.14200000000E+01 0.  1.
          4   -1    0    0  501    0  0.00000000000E+00 -0.00000000000E+00 -0.10968616732E+02  0.11060151582E+02  0.14200000000E+01 0. -1.
       1023    2    1    2    0    0  0.00000000000E+00  0.00000000000E+00 -0.20356978954E+01  0.20105229743E+02  0.20001904837E+02 0.  0.
        -11    1    3    3    0    0 -0.99746818828E+01 -0.71591865995E+00 -0.11290132823E+01  0.10063870500E+02  0.51100000000E-03 0. -1.
         11    1    3    3    0    0  0.99746818828E+01  0.71591865995E+00 -0.90668461310E+00  0.10041359243E+02  0.51100000000E-03 0.  1.
<mgrwt>
<rscale>  0 0.20001905E+02</rscale>
<asrwt>0</asrwt>
<pdfrwt beam="2">  1        4 0.17031483E-02 0.20001905E+02</pdfrwt>
<pdfrwt beam="1">  1       -4 0.13899640E-02 0.20001905E+02</pdfrwt>
<totfact> 0.13005273E+06</totfact>
</mgrwt>
</event>
<event>
 5    1  0.1154861E-006  0.2000043E+02  0.7818608E-02  0.1745320E+00
          4   -1    0    0  501    0  0.00000000000E+00  0.00000000000E+00  0.44875933034E+01  0.47068985178E+01  0.14200000000E+01 0. -1.
         -4   -1    0    0    0  501 -0.00000000000E+00 -0.00000000000E+00 -0.21509814391E+02  0.21556635061E+02  0.14200000000E+01 0.  1.
       1023    2    1    2    0    0  0.00000000000E+00  0.00000000000E+00 -0.17022221088E+02  0.26263533579E+02  0.20000429627E+02 0.  0.
        -11    1    3    3    0    0  0.98303597274E+01 -0.18352466281E+01 -0.85293770068E+01  0.13143605858E+02  0.51100000000E-03 0.  1.
         11    1    3    3    0    0 -0.98303597274E+01  0.18352466281E+01 -0.84928440810E+01  0.13119927721E+02  0.51100000000E-03 0. -1.
<mgrwt>
<rscale>  0 0.20000430E+02</rscale>
<asrwt>0</asrwt>
<pdfrwt beam="1">  1        4 0.71087020E-03 0.20000430E+02</pdfrwt>
<pdfrwt beam="2">  1       -4 0.33296734E-02 0.20000430E+02</pdfrwt>
<totfact> 0.12655135E+06</totfact>
</mgrwt>
</event>
<event>
 5    1  0.1162858E-006  0.2000048E+02  0.7818608E-02  0.1745319E+00
         -4   -1    0    0    0  501 -0.00000000000E+00  0.00000000000E+00  0.11764098173E+02  0.11849489686E+02  0.14200000000E+01 0.  1.
          4   -1    0    0  501    0  0.00000000000E+00 -0.00000000000E+00 -0.83243735134E+01  0.84446192567E+01  0.14200000000E+01 0. -1.
       1023    2    1    2    0    0  0.00000000000E+00  0.00000000000E+00  0.34397246593E+01  0.20294108943E+02  0.20000478795E+02 0.  0.
        -11    1    3    3    0    0  0.99052684796E+01 -0.13742802330E+01  0.16768377271E+01  0.10139762070E+02  0.51100000000E-03 0.  1.
         11    1    3    3    0    0 -0.99052684796E+01  0.13742802330E+01  0.17628869322E+01  0.10154346873E+02  0.51100000000E-03 0. -1.
<mgrwt>
<rscale>  0 0.20000479E+02</rscale>
<asrwt>0</asrwt>
<pdfrwt beam="2">  1        4 0.12964911E-02 0.20000479E+02</pdfrwt>
<pdfrwt beam="1">  1       -4 0.18256795E-02 0.20000479E+02</pdfrwt>
<totfact> 0.12995903E+06</totfact>
</mgrwt>
</event>
<event>
 5    1  0.1154861E-006  0.2000098E+02  0.7818608E-02  0.1745309E+00
          4   -1    0    0  501    0  0.00000000000E+00  0.00000000000E+00  0.13725632440E+01  0.19749252793E+01  0.14200000000E+01 0. -1.
         -4   -1    0    0    0  501 -0.00000000000E+00 -0.00000000000E+00 -0.59139698244E+02  0.59156743558E+02  0.14200000000E+01 0.  1.
       1023    2    1    2    0    0  0.00000000000E+00  0.00000000000E+00 -0.57767135000E+02  0.61131668837E+02  0.20000976195E+02 0.  0.
        -11    1    3    3    0    0 -0.95350249496E+01 -0.30154408752E+01 -0.28924283774E+02  0.30604309771E+02  0.51100000000E-03 0. -1.
         11    1    3    3    0    0  0.95350249496E+01  0.30154408752E+01 -0.28842851227E+02  0.30527359067E+02  0.51100000000E-03 0.  1.
<mgrwt>
<rscale>  0 0.20000976E+02</rscale>
<asrwt>0</asrwt>
<pdfrwt beam="1">  1        4 0.25881034E-03 0.20000976E+02</pdfrwt>
<pdfrwt beam="2">  1       -4 0.91460602E-02 0.20000976E+02</pdfrwt>
<totfact> 0.11074532E+06</totfact>
</mgrwt>
</event>
<event>
 5    1  0.1154861E-006  0.2000429E+02  0.7818608E-02  0.1745243E+00
         -4   -1    0    0    0  501 -0.00000000000E+00  0.00000000000E+00  0.91927025700E+01  0.93017299757E+01  0.14200000000E+01 0.  1.
          4   -1    0    0  501    0  0.00000000000E+00 -0.00000000000E+00 -0.10662324964E+02  0.10756466596E+02  0.14200000000E+01 0. -1.
       1023    2    1    2    0    0  0.00000000000E+00  0.00000000000E+00 -0.14696223940E+01  0.20058196572E+02  0.20004286034E+02 0.  0.
        -11    1    3    3    0    0 -0.71838682912E+01  0.69571696131E+01 -0.91610782706E+00  0.10042381513E+02  0.51100000000E-03 0. -1.
         11    1    3    3    0    0  0.71838682912E+01 -0.69571696131E+01 -0.55351456696E+00  0.10015815059E+02  0.51100000000E-03 0.  1.
<mgrwt>
<rscale>  0 0.20004286E+02</rscale>
<asrwt>0</asrwt>
<pdfrwt beam="2">  1        4 0.16559861E-02 0.20004286E+02</pdfrwt>
<pdfrwt beam="1">  1       -4 0.14298903E-02 0.20004286E+02</pdfrwt>
<totfact> 0.13004900E+06</totfact>
</mgrwt>
</event>
<event>
 5    1  0.1218104E-006  0.2000123E+02  0.7818608E-02  0.1745304E+00
          4   -1    0    0  501    0  0.00000000000E+00  0.00000000000E+00  0.71637103730E+01  0.73030915583E+01  0.14200000000E+01 0. -1.
         -4   -1    0    0    0  501 -0.00000000000E+00 -0.00000000000E+00 -0.13649891885E+02  0.13723554513E+02  0.14200000000E+01 0.  1.
       1023    2    1    2    0    0  0.00000000000E+00  0.00000000000E+00 -0.64861815122E+01  0.21026646072E+02  0.20001232322E+02 0.  0.
        -11    1    3    3    0    0 -0.10661979263E+01  0.99436079090E+01 -0.32279629340E+01  0.10508656490E+02  0.51100000000E-03 0. -1.
         11    1    3    3    0    0  0.10661979263E+01 -0.99436079090E+01 -0.32582185782E+01  0.10517989581E+02  0.51100000000E-03 0.  1.
<mgrwt>
<rscale>  0 0.20001232E+02</rscale>
<asrwt>0</asrwt>
<pdfrwt beam="1">  1        4 0.11184973E-02 0.20001232E+02</pdfrwt>
<pdfrwt beam="2">  1       -4 0.21163714E-02 0.20001232E+02</pdfrwt>
<totfact> 0.12951549E+06</totfact>
</mgrwt>
</event>
<event>
 5    1  0.1154861E-006  0.2000018E+02  0.7818608E-02  0.1745325E+00
         -4   -1    0    0    0  501 -0.00000000000E+00  0.00000000000E+00  0.62855728370E+01  0.64439759380E+01  0.14200000000E+01 0.  1.
          4   -1    0    0  501    0  0.00000000000E+00 -0.00000000000E+00 -0.15520540574E+02  0.15585364279E+02  0.14200000000E+01 0. -1.
       1023    2    1    2    0    0  0.00000000000E+00  0.00000000000E+00 -0.92349677370E+01  0.22029340217E+02  0.20000180032E+02 0.  0.
        -11    1    3    3    0    0 -0.98446380974E+01 -0.17563866113E+01 -0.46145975582E+01  0.11013460132E+02  0.51100000000E-03 0.  1.
         11    1    3    3    0    0  0.98446380974E+01  0.17563866113E+01 -0.46203701789E+01  0.11015880085E+02  0.51100000000E-03 0. -1.
<mgrwt>
<rscale>  0 0.20000180E+02</rscale>
<asrwt>0</asrwt>
<pdfrwt beam="2">  1        4 0.24049467E-02 0.20000180E+02</pdfrwt>
<pdfrwt beam="1">  1       -4 0.98418251E-03 0.20000180E+02</pdfrwt>
<totfact> 0.12894284E+06</totfact>
</mgrwt>
</event>
<event>
 5    1  0.1154861E-006  0.2000030E+02  0.7818608E-02  0.1745322E+00
          4   -1    0    0  501    0  0.00000000000E+00  0.00000000000E+00  0.12004245005E+03  0.12005084845E+03  0.14200000000E+01 0. -1.
         -4   -1    0    0    0  501 -0.00000000000E+00 -0.00000000000E+00 -0.21329936975E+00  0.14359305767E+01  0.14200000000E+01 0.  1.
       1023    2    1    2    0    0  0.00000000000E+00  0.00000000000E+00  0.11982915068E+03  0.12148677902E+03  0.20000303147E+02 0.  0.
        -11    1    3    3    0    0  0.61951514511E+01 -0.78500299952E+01  0.59838029353E+02  0.60667887960E+02  0.51100000000E-03 0.  1.
         11    1    3    3    0    0 -0.61951514511E+01  0.78500299952E+01  0.59991121323E+02  0.60818891064E+02  0.51100000000E-03 0. -1.
<mgrwt>
<rscale>  0 0.20000303E+02</rscale>
<asrwt>0</asrwt>
<pdfrwt beam="1">  1        4 0.18562769E-01 0.20000303E+02</pdfrwt>
<pdfrwt beam="2">  1       -4 0.12750984E-03 0.20000303E+02</pdfrwt>
<totfact> 0.92282554E+05</totfact>
</mgrwt>
</event>
<event>
 5    1  0.1154861E-006  0.2000172E+02  0.7818608E-02  0.1745294E+00
         -4   -1    0    0    0  501 -0.00000000000E+00  0.00000000000E+00  0.18545589049E+01  0.23357629870E+01  0.14200000000E+01 0. -1.
          4   -1    0    0  501    0  0.00000000000E+00 -0.00000000000E+00 -0.47244132795E+02  0.47265468193E+02  0.14200000000E+01 0.  1.
       1023    2    1    2    0    0  0.00000000000E+00  0.00000000000E+00 -0.45389573890E+02  0.49601231180E+02  0.20001717844E+02 0.  0.
        -11    1    3    3    0    0  0.98251227317E+01 -0.18658804298E+01 -0.22822021319E+02  0.24917046451E+02  0.51100000000E-03 0. -1.
         11    1    3    3    0    0 -0.98251227317E+01  0.18658804298E+01 -0.22567552571E+02  0.24684184730E+02  0.51100000000E-03 0.  1.
<mgrwt>
<rscale>  0 0.20001718E+02</rscale>
<asrwt>0</asrwt>
<pdfrwt beam="2">  1        4 0.73069842E-02 0.20001718E+02</pdfrwt>
<pdfrwt beam="1">  1       -4 0.32397367E-03 0.20001718E+02</pdfrwt>
<totfact> 0.11535021E+06</totfact>
</mgrwt>
</event>
<event>
 5    1  0.1188967E-006  0.2000154E+02  0.7818608E-02  0.1745298E+00
         -4   -1    0    0    0  501 -0.00000000000E+00  0.00000000000E+00  0.10525140928E+02  0.10620498649E+02  0.14200000000E+01 0.  1.
          4   -1    0    0  501    0  0.00000000000E+00 -0.00000000000E+00 -0.93102338839E+01  0.94179007731E+01  0.14200000000E+01 0. -1.
       1023    2    1    2    0    0  0.00000000000E+00  0.00000000000E+00  0.12149070439E+01  0.20038399422E+02  0.20001536248E+02 0.  0.
        -11    1    3    3    0    0  0.73486738654E+01 -0.67824481909E+01  0.71133533727E+00  0.10025497956E+02  0.51100000000E-03 0.  1.
         11    1    3    3    0    0 -0.73486738654E+01  0.67824481909E+01  0.50357170659E+00  0.10012901466E+02  0.51100000000E-03 0. -1.
<mgrwt>
<rscale>  0 0.20001536E+02</rscale>
<asrwt>0</asrwt>
<pdfrwt beam="2">  1        4 0.14479609E-02 0.20001536E+02</pdfrwt>
<pdfrwt beam="1">  1       -4 0.16348697E-02 0.20001536E+02</pdfrwt>
<totfact> 0.13009725E+06</totfact>
</mgrwt>
</event>
<event>
 5    1  0.1154861E-006  0.2000059E+02  0.7818608E-02  0.1745316E+00
         -4   -1    0    0    0  501 -0.00000000000E+00  0.00000000000E+00  0.44686453214E+01  0.46888368502E+01  0.14200000000E+01 0.  1.
          4   -1    0    0  501    0  0.00000000000E+00 -0.00000000000E+00 -0.21597285471E+02  0.21643916921E+02  0.14200000000E+01 0. -1.
       1023    2    1    2    0    0  0.00000000000E+00  0.00000000000E+00 -0.17128640149E+02  0.26332753772E+02  0.20000590187E+02 0.  0.
        -11    1    3    3    0    0 -0.85808581596E+01 -0.51355823368E+01 -0.85957259658E+01  0.13186805445E+02  0.51100000000E-03 0. -1.
         11    1    3    3    0    0  0.85808581596E+01  0.51355823368E+01 -0.85329141834E+01  0.13145948327E+02  0.51100000000E-03 0.  1.
<mgrwt>
<rscale>  0 0.20000590E+02</rscale>
<asrwt>0</asrwt>
<pdfrwt beam="2">  1        4 0.33431841E-02 0.20000590E+02</pdfrwt>
<pdfrwt beam="1">  1       -4 0.70800875E-03 0.20000590E+02</pdfrwt>
<totfact> 0.12651133E+06</totfact>
</mgrwt>
</event>
<event>
 4    1  0.1154861E-006  0.2009279E+02  0.7818608E-02  0.1743489E+00
         -4   -1    0    0    0  501 -0.00000000000E+00  0.00000000000E+00  0.10691613267E+01  0.17774999135E+01  0.14200000000E+01 0. -1.
          4   -1    0    0  501    0  0.00000000000E+00 -0.00000000000E+00 -0.70193847850E+02  0.70208209463E+02  0.14200000000E+01 0.  1.
        -11    1    1    2    0    0  0.97732552660E+01  0.22866662894E+01 -0.33022816941E+02  0.34514515789E+02  0.51100000000E-03 0. -1.
         11    1    1    2    0    0 -0.97732552660E+01 -0.22866662894E+01 -0.36101869582E+02  0.37471193587E+02  0.51100000000E-03 0.  1.
<mgrwt>
<rscale>  0 0.20092786E+02</rscale>
<asrwt>0</asrwt>
<pdfrwt beam="2">  1        4 0.10854643E-01 0.20092786E+02</pdfrwt>
<pdfrwt beam="1">  1       -4 0.22007874E-03 0.20092786E+02</pdfrwt>
<totfact> 0.10582480E+06</totfact>
</mgrwt>
</event>
<event>
 5    1  0.1168656E-006  0.2000081E+02  0.7818608E-02  0.1745312E+00
         -4   -1    0    0    0  501 -0.00000000000E+00  0.00000000000E+00  0.94029641604E+01  0.95095812211E+01  0.14200000000E+01 0. -1.
          4   -1    0    0  501    0  0.00000000000E+00 -0.00000000000E+00 -0.10420811002E+02  0.10517114715E+02  0.14200000000E+01 0.  1.
       1023    2    1    2    0    0  0.00000000000E+00  0.00000000000E+00 -0.10178468415E+01  0.20026695937E+02  0.20000813432E+02 0.  0.
        -11    1    3    3    0    0  0.67292366779E+01 -0.73973036827E+01 -0.58254531626E+00  0.10017089764E+02  0.51100000000E-03 0. -1.
         11    1    3    3    0    0 -0.67292366779E+01  0.73973036827E+01 -0.43530152522E+00  0.10009606172E+02  0.51100000000E-03 0.  1.
<mgrwt>
<rscale>  0 0.20000813E+02</rscale>
<asrwt>0</asrwt>
<pdfrwt beam="2">  1        4 0.16188110E-02 0.20000813E+02</pdfrwt>
<pdfrwt beam="1">  1       -4 0.14622192E-02 0.20000813E+02</pdfrwt>
<totfact> 0.13011380E+06</totfact>
</mgrwt>
</event>
<event>
 5    1  0.1184236E-006  0.2000133E+02  0.7818608E-02  0.1745302E+00
         -4   -1    0    0    0  501 -0.00000000000E+00  0.00000000000E+00  0.56783958746E+01  0.58532537711E+01  0.14200000000E+01 0. -1.
          4   -1    0    0  501    0  0.00000000000E+00 -0.00000000000E+00 -0.17141209530E+02  0.17199926283E+02  0.14200000000E+01 0.  1.
       1023    2    1    2    0    0  0.00000000000E+00  0.00000000000E+00 -0.11462813655E+02  0.23053180054E+02  0.20001325299E+02 0.  0.
        -11    1    3    3    0    0  0.24910604121E+01  0.96848332708E+01 -0.58570103546E+01  0.11589044310E+02  0.51100000000E-03 0.  1.
         11    1    3    3    0    0 -0.24910604121E+01 -0.96848332708E+01 -0.56058033007E+01  0.11464135744E+02  0.51100000000E-03 0. -1.
<mgrwt>
<rscale>  0 0.20001325E+02</rscale>
<asrwt>0</asrwt>
<pdfrwt beam="2">  1        4 0.26550764E-02 0.20001325E+02</pdfrwt>
<pdfrwt beam="1">  1       -4 0.89156665E-03 0.20001325E+02</pdfrwt>
<totfact> 0.12833801E+06</totfact>
</mgrwt>
</event>
<event>
 5    1  0.1154861E-006  0.2000050E+02  0.7818608E-02  0.1745318E+00
          4   -1    0    0  501    0  0.00000000000E+00  0.00000000000E+00  0.24731209612E+02  0.24771942372E+02  0.14200000000E+01 0.  1.
         -4   -1    0    0    0  501 -0.00000000000E+00 -0.00000000000E+00 -0.38734705936E+01  0.41255514104E+01  0.14200000000E+01 0. -1.
       1023    2    1    2    0    0  0.00000000000E+00  0.00000000000E+00  0.20857739018E+02  0.28897493782E+02  0.20000496742E+02 0.  0.
        -11    1    3    3    0    0  0.41864302125E+01  0.90817796712E+01  0.10418932532E+02  0.14441574543E+02  0.51100000000E-03 0.  1.
         11    1    3    3    0    0 -0.41864302125E+01 -0.90817796712E+01  0.10438806487E+02  0.14455919239E+02  0.51100000000E-03 0. -1.
<mgrwt>
<rscale>  0 0.20000497E+02</rscale>
<asrwt>0</asrwt>
<pdfrwt beam="1">  1        4 0.38273256E-02 0.20000497E+02</pdfrwt>
<pdfrwt beam="2">  1       -4 0.61844267E-03 0.20000497E+02</pdfrwt>
<totfact> 0.12513098E+06</totfact>
</mgrwt>
</event>
<event>
 5    1  0.1154861E-006  0.2000037E+02  0.7818608E-02  0.1745321E+00
         -4   -1    0    0    0  501 -0.00000000000E+00  0.00000000000E+00  0.79709565366E+01  0.80964528102E+01  0.14200000000E+01 0.  1.
          4   -1    0    0  501    0  0.00000000000E+00 -0.00000000000E+00 -0.12281286037E+02  0.12363105869E+02  0.14200000000E+01 0.  1.
       1023    2    1    2    0    0  0.00000000000E+00  0.00000000000E+00 -0.43103295009E+01  0.20459558679E+02  0.20000365021E+02 0.  0.
        -11    1    3    3    0    0 -0.12070632999E+00  0.99994486570E+01 -0.21446071996E+01  0.10227555122E+02  0.51100000000E-03 0.  1.
         11    1    3    3    0    0  0.12070632999E+00 -0.99994486570E+01 -0.21657223013E+01  0.10232003558E+02  0.51100000000E-03 0. -1.
<mgrwt>
<rscale>  0 0.20000365E+02</rscale>
<asrwt>0</asrwt>
<pdfrwt beam="2">  1        4 0.19053760E-02 0.20000365E+02</pdfrwt>
<pdfrwt beam="1">  1       -4 0.12422484E-02 0.20000365E+02</pdfrwt>
<totfact> 0.12986234E+06</totfact>
</mgrwt>
</event>
<event>
 5    1  0.1154861E-006  0.2000614E+02  0.7818608E-02  0.1745206E+00
          4   -1    0    0  501    0  0.00000000000E+00  0.00000000000E+00  0.25536006383E+01  0.29218617729E+01  0.14200000000E+01 0.  1.
         -4   -1    0    0    0  501 -0.00000000000E+00 -0.00000000000E+00 -0.36165901369E+02  0.36193767721E+02  0.14200000000E+01 0. -1.
       1023    2    1    2    0    0  0.00000000000E+00  0.00000000000E+00 -0.33612300731E+02  0.39115629494E+02  0.20006141814E+02 0.  0.
        -11    1    3    3    0    0 -0.87962449305E+01 -0.47628982275E+01 -0.16899976782E+02  0.19638440363E+02  0.51100000000E-03 0.  1.
         11    1    3    3    0    0  0.87962449305E+01  0.47628982275E+01 -0.16712323949E+02  0.19477189131E+02  0.51100000000E-03 0. -1.
<mgrwt>
<rscale>  0 0.20006142E+02</rscale>
<asrwt>0</asrwt>
<pdfrwt beam="1">  1        4 0.42333301E-03 0.20006142E+02</pdfrwt>
<pdfrwt beam="2">  1       -4 0.55944558E-02 0.20006142E+02</pdfrwt>
<totfact> 0.11996512E+06</totfact>
</mgrwt>
</event>
<event>
 5    1  0.1154861E-006  0.2000286E+02  0.7818608E-02  0.1745271E+00
          4   -1    0    0  501    0  0.00000000000E+00  0.00000000000E+00  0.23594464031E+01  0.27537950776E+01  0.14200000000E+01 0.  1.
         -4   -1    0    0    0  501 -0.00000000000E+00 -0.00000000000E+00 -0.38716947240E+02  0.38742978765E+02  0.14200000000E+01 0. -1.
       1023    2    1    2    0    0  0.00000000000E+00  0.00000000000E+00 -0.36357500837E+02  0.41496773842E+02  0.20002859101E+02 0.  0.
        -11    1    3    3    0    0  0.96738583960E+01 -0.25359202756E+01 -0.17931846024E+02  0.20532061027E+02  0.51100000000E-03 0.  1.
         11    1    3    3    0    0 -0.96738583960E+01  0.25359202756E+01 -0.18425654813E+02  0.20964712816E+02  0.51100000000E-03 0. -1.
<mgrwt>
<rscale>  0 0.20002859E+02</rscale>
<asrwt>0</asrwt>
<pdfrwt beam="1">  1        4 0.39532872E-03 0.20002859E+02</pdfrwt>
<pdfrwt beam="2">  1       -4 0.59887899E-02 0.20002859E+02</pdfrwt>
<totfact> 0.11890069E+06</totfact>
</mgrwt>
</event>
<event>
 5    1  0.1154861E-006  0.2000356E+02  0.7818608E-02  0.1745257E+00
         -4   -1    0    0    0  501 -0.00000000000E+00  0.00000000000E+00  0.13627486236E+01  0.19681168185E+01  0.14200000000E+01 0.  1.
          4   -1    0    0  501    0  0.00000000000E+00 -0.00000000000E+00 -0.59450425388E+02  0.59467381637E+02  0.14200000000E+01 0. -1.
       1023    2    1    2    0    0  0.00000000000E+00  0.00000000000E+00 -0.58087676764E+02  0.61435498456E+02  0.20003556650E+02 0.  0.
        -11    1    3    3    0    0  0.98214341375E+01 -0.18893573868E+01 -0.29268049593E+02  0.30929742435E+02  0.51100000000E-03 0. -1.
         11    1    3    3    0    0 -0.98214341375E+01  0.18893573868E+01 -0.28819627171E+02  0.30505756021E+02  0.51100000000E-03 0.  1.
<mgrwt>
<rscale>  0 0.20003557E+02</rscale>
<asrwt>0</asrwt>
<pdfrwt beam="2">  1        4 0.91940888E-02 0.20003557E+02</pdfrwt>
<pdfrwt beam="1">  1       -4 0.25752479E-03 0.20003557E+02</pdfrwt>
<totfact> 0.11060128E+06</totfact>
</mgrwt>
</event>
<event>
 5    1  0.1154861E-006  0.2000010E+02  0.7818608E-02  0.1745326E+00
         -4   -1    0    0    0  501 -0.00000000000E+00  0.00000000000E+00  0.29912970925E+02  0.29946656400E+02  0.14200000000E+01 0. -1.
          4   -1    0    0  501    0  0.00000000000E+00 -0.00000000000E+00 -0.31549962948E+01  0.34598268194E+01  0.14200000000E+01 0.  1.
       1023    2    1    2    0    0  0.00000000000E+00  0.00000000000E+00  0.26757974630E+02  0.33406483219E+02  0.20000097870E+02 0.  0.
        -11    1    3    3    0    0 -0.11484240609E+01 -0.99338813719E+01  0.13362158997E+02  0.16689762439E+02  0.51100000000E-03 0.  1.
         11    1    3    3    0    0  0.11484240609E+01  0.99338813719E+01  0.13395815633E+02  0.16716720781E+02  0.51100000000E-03 0. -1.
<mgrwt>
<rscale>  0 0.20000098E+02</rscale>
<asrwt>0</asrwt>
<pdfrwt beam="2">  1        4 0.51142376E-03 0.20000098E+02</pdfrwt>
<pdfrwt beam="1">  1       -4 0.46280350E-02 0.20000098E+02</pdfrwt>
<totfact> 0.12281120E+06</totfact>
</mgrwt>
</event>
<event>
 5    1  0.1154861E-006  0.2001033E+02  0.7818608E-02  0.1745123E+00
         -4   -1    0    0    0  501 -0.00000000000E+00  0.00000000000E+00  0.19735420312E+02  0.19786440177E+02  0.14200000000E+01 0.  1.
          4   -1    0    0  501    0  0.00000000000E+00 -0.00000000000E+00 -0.49140445797E+01  0.51150986433E+01  0.14200000000E+01 0. -1.
       1023    2    1    2    0    0  0.00000000000E+00  0.00000000000E+00  0.14821375732E+02  0.24901538820E+02  0.20010333756E+02 0.  0.
        -11    1    3    3    0    0 -0.23514565913E+01  0.97200213496E+01  0.70267222932E+01  0.12222233412E+02  0.51100000000E-03 0. -1.
         11    1    3    3    0    0  0.23514565913E+01 -0.97200213496E+01  0.77946534387E+01  0.12679305408E+02  0.51100000000E-03 0.  1.
<mgrwt>
<rscale>  0 0.20010334E+02</rscale>
<asrwt>0</asrwt>
<pdfrwt beam="2">  1        4 0.77539716E-03 0.20010334E+02</pdfrwt>
<pdfrwt beam="1">  1       -4 0.30556088E-02 0.20010334E+02</pdfrwt>
<totfact> 0.12717709E+06</totfact>
</mgrwt>
</event>
<event>
 5    1  0.1185412E-006  0.2000128E+02  0.7818608E-02  0.1745303E+00
         -4   -1    0    0    0  501 -0.00000000000E+00  0.00000000000E+00  0.12604513256E+02  0.12684248279E+02  0.14200000000E+01 0. -1.
          4   -1    0    0  501    0  0.00000000000E+00 -0.00000000000E+00 -0.77653410888E+01  0.78941068035E+01  0.14200000000E+01 0.  1.
       1023    2    1    2    0    0  0.00000000000E+00  0.00000000000E+00  0.48391721668E+01  0.20578355083E+02  0.20001277726E+02 0.  0.
        -11    1    3    3    0    0  0.87501705939E+01  0.48414523373E+01  0.23297086532E+01  0.10268042113E+02  0.51100000000E-03 0.  1.
         11    1    3    3    0    0 -0.87501705939E+01 -0.48414523373E+01  0.25094635136E+01  0.10310312970E+02  0.51100000000E-03 0. -1.
<mgrwt>
<rscale>  0 0.20001278E+02</rscale>
<asrwt>0</asrwt>
<pdfrwt beam="2">  1        4 0.12107064E-02 0.20001278E+02</pdfrwt>
<pdfrwt beam="1">  1       -4 0.19551944E-02 0.20001278E+02</pdfrwt>
<totfact> 0.12977993E+06</totfact>
</mgrwt>
</event>
<event>
 5    1  0.1154861E-006  0.2000169E+02  0.7818608E-02  0.1745294E+00
          4   -1    0    0  501    0  0.00000000000E+00  0.00000000000E+00  0.40932360085E+02  0.40956983557E+02  0.14200000000E+01 0.  1.
         -4   -1    0    0    0  501 -0.00000000000E+00 -0.00000000000E+00 -0.22095734665E+01  0.26265214456E+01  0.14200000000E+01 0. -1.
       1023    2    1    2    0    0  0.00000000000E+00  0.00000000000E+00  0.38722786618E+02  0.43583505003E+02  0.20001692550E+02 0.  0.
        -11    1    3    3    0    0 -0.97411576714E+01  0.22642358940E+01  0.19367925674E+02  0.21797556334E+02  0.51100000000E-03 0. -1.
         11    1    3    3    0    0  0.97411576714E+01 -0.22642358940E+01  0.19354860945E+02  0.21785948669E+02  0.51100000000E-03 0.  1.
<mgrwt>
<rscale>  0 0.20001693E+02</rscale>
<asrwt>0</asrwt>
<pdfrwt beam="1">  1        4 0.63312531E-02 0.20001693E+02</pdfrwt>
<pdfrwt beam="2">  1       -4 0.37390142E-03 0.20001693E+02</pdfrwt>
<totfact> 0.11796885E+06</totfact>
</mgrwt>
</event>
<event>
 5    1  0.1183678E-006  0.2000142E+02  0.7818608E-02  0.1745300E+00
         -4   -1    0    0    0  501 -0.00000000000E+00  0.00000000000E+00  0.90718713314E+01  0.91823335516E+01  0.14200000000E+01 0.  1.
          4   -1    0    0  501    0  0.00000000000E+00 -0.00000000000E+00 -0.10800719042E+02  0.10893664756E+02  0.14200000000E+01 0. -1.
       1023    2    1    2    0    0  0.00000000000E+00  0.00000000000E+00 -0.17288477106E+01  0.20075998308E+02  0.20001419791E+02 0.  0.
        -11    1    3    3    0    0 -0.98434220103E+01  0.17644159537E+01 -0.77421314753E+00  0.10030230645E+02  0.51100000000E-03 0.  1.
         11    1    3    3    0    0  0.98434220103E+01 -0.17644159537E+01 -0.95463456306E+00  0.10045767663E+02  0.51100000000E-03 0. -1.
<mgrwt>
<rscale>  0 0.20001420E+02</rscale>
<asrwt>0</asrwt>
<pdfrwt beam="2">  1        4 0.16772958E-02 0.20001420E+02</pdfrwt>
<pdfrwt beam="1">  1       -4 0.14113193E-02 0.20001420E+02</pdfrwt>
<totfact> 0.13007650E+06</totfact>
</mgrwt>
</event>
<event>
 5    1  0.1154861E-006  0.2000293E+02  0.7818608E-02  0.1745270E+00
          4   -1    0    0  501    0  0.00000000000E+00  0.00000000000E+00  0.46324577518E+01  0.48452105034E+01  0.14200000000E+01 0.  1.
         -4   -1    0    0    0  501 -0.00000000000E+00 -0.00000000000E+00 -0.20870990367E+02  0.20919240878E+02  0.14200000000E+01 0. -1.
       1023    2    1    2    0    0  0.00000000000E+00  0.00000000000E+00 -0.16238532615E+02  0.25764451381E+02  0.20002925123E+02 0.  0.
        -11    1    3    3    0    0  0.91452576093E+01 -0.40481889546E+01 -0.80221707837E+01  0.12821029401E+02  0.51100000000E-03 0. -1.
         11    1    3    3    0    0 -0.91452576093E+01  0.40481889546E+01 -0.82163618313E+01  0.12943421980E+02  0.51100000000E-03 0.  1.
<mgrwt>
<rscale>  0 0.20002925E+02</rscale>
<asrwt>0</asrwt>
<pdfrwt beam="1">  1        4 0.73276299E-03 0.20002925E+02</pdfrwt>
<pdfrwt beam="2">  1       -4 0.32309987E-02 0.20002925E+02</pdfrwt>
<totfact> 0.12679380E+06</totfact>
</mgrwt>
</event>
<event>
 5    1  0.1154861E-006  0.2000051E+02  0.7818608E-02  0.1745318E+00
         -4   -1    0    0    0  501 -0.00000000000E+00  0.00000000000E+00  0.26143458176E+01  0.29750973184E+01  0.14200000000E+01 0. -1.
          4   -1    0    0  501    0  0.00000000000E+00 -0.00000000000E+00 -0.35407651050E+02  0.35436113682E+02  0.14200000000E+01 0.  1.
       1023    2    1    2    0    0  0.00000000000E+00  0.00000000000E+00 -0.32793305233E+02  0.38411211001E+02  0.20000506555E+02 0.  0.
        -11    1    3    3    0    0  0.85849309717E+01  0.51286641614E+01 -0.16451964756E+02  0.19252827856E+02  0.51100000000E-03 0.  1.
         11    1    3    3    0    0 -0.85849309717E+01 -0.51286641614E+01 -0.16341340477E+02  0.19158383145E+02  0.51100000000E-03 0. -1.
<mgrwt>
<rscale>  0 0.20000507E+02</rscale>
<asrwt>0</asrwt>
<pdfrwt beam="2">  1        4 0.54772702E-02 0.20000507E+02</pdfrwt>
<pdfrwt beam="1">  1       -4 0.43214662E-03 0.20000507E+02</pdfrwt>
<totfact> 0.12036593E+06</totfact>
</mgrwt>
</event>
<event>
 5    1  0.1154861E-006  0.2000420E+02  0.7818608E-02  0.1745245E+00
         -4   -1    0    0    0  501 -0.00000000000E+00  0.00000000000E+00  0.47224881417E+02  0.47246225509E+02  0.14200000000E+01 0. -1.
          4   -1    0    0  501    0  0.00000000000E+00 -0.00000000000E+00 -0.18560959254E+01  0.23369835439E+01  0.14200000000E+01 0. -1.
       1023    2    1    2    0    0  0.00000000000E+00  0.00000000000E+00  0.45368785492E+02  0.49583209053E+02  0.20004197635E+02 0.  0.
        -11    1    3    3    0    0  0.72855328056E+01  0.68520221827E+01  0.22404139348E+02  0.24535171824E+02  0.51100000000E-03 0.  1.
         11    1    3    3    0    0 -0.72855328056E+01 -0.68520221827E+01  0.22964646144E+02  0.25048037229E+02  0.51100000000E-03 0. -1.
<mgrwt>
<rscale>  0 0.20004198E+02</rscale>
<asrwt>0</asrwt>
<pdfrwt beam="2">  1        4 0.32418640E-03 0.20004198E+02</pdfrwt>
<pdfrwt beam="1">  1       -4 0.73040001E-02 0.20004198E+02</pdfrwt>
<totfact> 0.11532896E+06</totfact>
</mgrwt>
</event>
<event>
 5    1  0.1154861E-006  0.2000057E+02  0.7818608E-02  0.1745317E+00
         -4   -1    0    0    0  501 -0.00000000000E+00  0.00000000000E+00  0.59866155113E+01  0.61527201529E+01  0.14200000000E+01 0. -1.
          4   -1    0    0  501    0  0.00000000000E+00 -0.00000000000E+00 -0.16278874303E+02  0.16340689966E+02  0.14200000000E+01 0.  1.
       1023    2    1    2    0    0  0.00000000000E+00  0.00000000000E+00 -0.10292258792E+02  0.22493410119E+02  0.20000572686E+02 0.  0.
        -11    1    3    3    0    0  0.41180093329E+01  0.91130432673E+01 -0.51315428917E+01  0.11240030746E+02  0.51100000000E-03 0. -1.
         11    1    3    3    0    0 -0.41180093329E+01 -0.91130432673E+01 -0.51607159000E+01  0.11253379373E+02  0.51100000000E-03 0.  1.
<mgrwt>
<rscale>  0 0.20000573E+02</rscale>
<asrwt>0</asrwt>
<pdfrwt beam="2">  1        4 0.25219745E-02 0.20000573E+02</pdfrwt>
<pdfrwt beam="1">  1       -4 0.93855011E-03 0.20000573E+02</pdfrwt>
<totfact> 0.12866928E+06</totfact>
</mgrwt>
</event>
<event>
 5    1  0.1198888E-006  0.2000091E+02  0.7818608E-02  0.1745310E+00
         -4   -1    0    0    0  501 -0.00000000000E+00  0.00000000000E+00  0.53281547812E+01  0.55141303369E+01  0.14200000000E+01 0. -1.
          4   -1    0    0  501    0  0.00000000000E+00 -0.00000000000E+00 -0.18233923158E+02  0.18289132121E+02  0.14200000000E+01 0.  1.
       1023    2    1    2    0    0  0.00000000000E+00  0.00000000000E+00 -0.12905768377E+02  0.23803262458E+02  0.20000911135E+02 0.  0.
        -11    1    3    3    0    0 -0.17513070475E+01  0.98457906792E+01 -0.63940871761E+01  0.11869752379E+02  0.51100000000E-03 0. -1.
         11    1    3    3    0    0  0.17513070475E+01 -0.98457906792E+01 -0.65116812011E+01  0.11933510079E+02  0.51100000000E-03 0.  1.
<mgrwt>
<rscale>  0 0.20000911E+02</rscale>
<asrwt>0</asrwt>
<pdfrwt beam="2">  1        4 0.28237716E-02 0.20000911E+02</pdfrwt>
<pdfrwt beam="1">  1       -4 0.83826878E-03 0.20000911E+02</pdfrwt>
<totfact> 0.12791686E+06</totfact>
</mgrwt>
</event>
<event>
 5    1  0.1154861E-006  0.2000028E+02  0.7818608E-02  0.1745323E+00
          4   -1    0    0  501    0  0.00000000000E+00  0.00000000000E+00  0.32832720459E+01  0.35771881873E+01  0.14200000000E+01 0.  1.
         -4   -1    0    0    0  501 -0.00000000000E+00 -0.00000000000E+00 -0.28841235323E+02  0.28876171058E+02  0.14200000000E+01 0. -1.
       1023    2    1    2    0    0  0.00000000000E+00  0.00000000000E+00 -0.25557963277E+02  0.32453359245E+02  0.20000275983E+02 0.  0.
        -11    1    3    3    0    0 -0.99832369074E+01 -0.58087966961E+00 -0.12749988821E+02  0.16203846936E+02  0.51100000000E-03 0.  1.
         11    1    3    3    0    0  0.99832369074E+01  0.58087966961E+00 -0.12807974456E+02  0.16249512309E+02  0.51100000000E-03 0. -1.
<mgrwt>
<rscale>  0 0.20000276E+02</rscale>
<asrwt>0</asrwt>
<pdfrwt beam="1">  1        4 0.53041509E-03 0.20000276E+02</pdfrwt>
<pdfrwt beam="2">  1       -4 0.44624093E-02 0.20000276E+02</pdfrwt>
<totfact> 0.12329028E+06</totfact>
</mgrwt>
</event>
<event>
 5    1  0.1179374E-006  0.2000152E+02  0.7818608E-02  0.1745298E+00
          4   -1    0    0  501    0  0.00000000000E+00  0.00000000000E+00  0.17135538846E+02  0.17194274964E+02  0.14200000000E+01 0.  1.
         -4   -1    0    0    0  501 -0.00000000000E+00 -0.00000000000E+00 -0.56804395164E+01  0.58552363829E+01  0.14200000000E+01 0.  1.
       1023    2    1    2    0    0  0.00000000000E+00  0.00000000000E+00  0.11455099329E+02  0.23049511347E+02  0.20001516759E+02 0.  0.
        -11    1    3    3    0    0  0.44671929425E+00 -0.99907627923E+01  0.57086628764E+01  0.11515369356E+02  0.51100000000E-03 0. -1.
         11    1    3    3    0    0 -0.44671929425E+00  0.99907627923E+01  0.57464364528E+01  0.11534141991E+02  0.51100000000E-03 0.  1.
<mgrwt>
<rscale>  0 0.20001517E+02</rscale>
<asrwt>0</asrwt>
<pdfrwt beam="1">  1        4 0.26542008E-02 0.20001517E+02</pdfrwt>
<pdfrwt beam="2">  1       -4 0.89187786E-03 0.20001517E+02</pdfrwt>
<totfact> 0.12833760E+06</totfact>
</mgrwt>
</event>
<event>
 5    1  0.1154861E-006  0.2000043E+02  0.7818608E-02  0.1745320E+00
          4   -1    0    0  501    0  0.00000000000E+00  0.00000000000E+00  0.18593194103E+01  0.23395445431E+01  0.14200000000E+01 0.  1.
         -4   -1    0    0    0  501 -0.00000000000E+00 -0.00000000000E+00 -0.47141818331E+02  0.47163200014E+02  0.14200000000E+01 0. -1.
       1023    2    1    2    0    0  0.00000000000E+00  0.00000000000E+00 -0.45282498920E+02  0.49502744557E+02  0.20000425250E+02 0.  0.
        -11    1    3    3    0    0  0.41711352873E-01  0.10000038891E+02 -0.22744334058E+02  0.24845668630E+02  0.51100000000E-03 0.  1.
         11    1    3    3    0    0 -0.41711352873E-01 -0.10000038891E+02 -0.22538164862E+02  0.24657075927E+02  0.51100000000E-03 0. -1.
<mgrwt>
<rscale>  0 0.20000425E+02</rscale>
<asrwt>0</asrwt>
<pdfrwt beam="1">  1        4 0.32463431E-03 0.20000425E+02</pdfrwt>
<pdfrwt beam="2">  1       -4 0.72911718E-02 0.20000425E+02</pdfrwt>
<totfact> 0.11540685E+06</totfact>
</mgrwt>
</event>
<event>
 5    1  0.1154861E-006  0.2000102E+02  0.7818608E-02  0.1745308E+00
         -4   -1    0    0    0  501 -0.00000000000E+00  0.00000000000E+00  0.91838136175E+00  0.16911015125E+01  0.14200000000E+01 0. -1.
          4   -1    0    0  501    0  0.00000000000E+00 -0.00000000000E+00 -0.75870021027E+02  0.75883308380E+02  0.14200000000E+01 0.  1.
       1023    2    1    2    0    0  0.00000000000E+00  0.00000000000E+00 -0.74951639665E+02  0.77574409892E+02  0.20001019514E+02 0.  0.
        -11    1    3    3    0    0  0.57363968016E+00  0.99839586624E+01 -0.37635833395E+02  0.38941808492E+02  0.51100000000E-03 0.  1.
         11    1    3    3    0    0 -0.57363968016E+00 -0.99839586624E+01 -0.37315806271E+02  0.38632601400E+02  0.51100000000E-03 0. -1.
<mgrwt>
<rscale>  0 0.20001020E+02</rscale>
<asrwt>0</asrwt>
<pdfrwt beam="2">  1        4 0.11732770E-01 0.20001020E+02</pdfrwt>
<pdfrwt beam="1">  1       -4 0.20175162E-03 0.20001020E+02</pdfrwt>
<totfact> 0.10490098E+06</totfact>
</mgrwt>
</event>
<event>
 5    1  0.1154861E-006  0.2000019E+02  0.7818608E-02  0.1745324E+00
         -4   -1    0    0    0  501 -0.00000000000E+00  0.00000000000E+00  0.90913137026E+00  0.16860960377E+01  0.14200000000E+01 0. -1.
          4   -1    0    0  501    0  0.00000000000E+00 -0.00000000000E+00 -0.76280423645E+02  0.76293639521E+02  0.14200000000E+01 0.  1.
       1023    2    1    2    0    0  0.00000000000E+00  0.00000000000E+00 -0.75371292274E+02  0.77979735559E+02  0.20000186468E+02 0.  0.
        -11    1    3    3    0    0  0.26869438587E+01 -0.96322927228E+01 -0.37816944531E+02  0.39116774206E+02  0.51100000000E-03 0.  1.
         11    1    3    3    0    0 -0.26869438587E+01  0.96322927228E+01 -0.37554347744E+02  0.38862961353E+02  0.51100000000E-03 0. -1.
<mgrwt>
<rscale>  0 0.20000186E+02</rscale>
<asrwt>0</asrwt>
<pdfrwt beam="2">  1        4 0.11796229E-01 0.20000186E+02</pdfrwt>
<pdfrwt beam="1">  1       -4 0.20064954E-03 0.20000186E+02</pdfrwt>
<totfact> 0.10477502E+06</totfact>
</mgrwt>
</event>
<event>
 5    1  0.1210769E-006  0.2000130E+02  0.7818608E-02  0.1745302E+00
         -4   -1    0    0    0  501 -0.00000000000E+00  0.00000000000E+00  0.78160018239E+01  0.79439464066E+01  0.14200000000E+01 0.  1.
          4   -1    0    0  501    0  0.00000000000E+00 -0.00000000000E+00 -0.12523648626E+02  0.12603895227E+02  0.14200000000E+01 0. -1.
       1023    2    1    2    0    0  0.00000000000E+00  0.00000000000E+00 -0.47076468019E+01  0.20547841634E+02  0.20001296393E+02 0.  0.
        -11    1    3    3    0    0 -0.17994866876E+01  0.98373820187E+01 -0.23815187330E+01  0.10280266001E+02  0.51100000000E-03 0.  1.
         11    1    3    3    0    0  0.17994866876E+01 -0.98373820187E+01 -0.23261280689E+01  0.10267575633E+02  0.51100000000E-03 0. -1.
<mgrwt>
<rscale>  0 0.20001296E+02</rscale>
<asrwt>0</asrwt>
<pdfrwt beam="2">  1        4 0.19427299E-02 0.20001296E+02</pdfrwt>
<pdfrwt beam="1">  1       -4 0.12184765E-02 0.20001296E+02</pdfrwt>
<totfact> 0.12979773E+06</totfact>
</mgrwt>
</event>
<event>
 5    1  0.1154861E-006  0.2000031E+02  0.7818608E-02  0.1745322E+00
         -4   -1    0    0    0  501 -0.00000000000E+00  0.00000000000E+00  0.67692193233E+01  0.69165547960E+01  0.14200000000E+01 0.  1.
          4   -1    0    0  501    0  0.00000000000E+00 -0.00000000000E+00 -0.14431616378E+02  0.14501308606E+02  0.14200000000E+01 0. -1.
       1023    2    1    2    0    0  0.00000000000E+00  0.00000000000E+00 -0.76623970547E+01  0.21417863402E+02  0.20000313599E+02 0.  0.
        -11    1    3    3    0    0  0.42939577752E+01 -0.90313326368E+01 -0.38208610371E+01  0.10705233388E+02  0.51100000000E-03 0. -1.
         11    1    3    3    0    0 -0.42939577752E+01  0.90313326368E+01 -0.38415360175E+01  0.10712630013E+02  0.51100000000E-03 0.  1.
<mgrwt>
<rscale>  0 0.20000314E+02</rscale>
<asrwt>0</asrwt>
<pdfrwt beam="2">  1        4 0.22369431E-02 0.20000314E+02</pdfrwt>
<pdfrwt beam="1">  1       -4 0.10581128E-02 0.20000314E+02</pdfrwt>
<totfact> 0.12929761E+06</totfact>
</mgrwt>
</event>
<event>
 5    1  0.1154861E-006  0.2000043E+02  0.7818608E-02  0.1745320E+00
          4   -1    0    0  501    0  0.00000000000E+00  0.00000000000E+00  0.23376658674E+02  0.23419747453E+02  0.14200000000E+01 0.  1.
         -4   -1    0    0    0  501 -0.00000000000E+00 -0.00000000000E+00 -0.41116671372E+01  0.43499662811E+01  0.14200000000E+01 0. -1.
       1023    2    1    2    0    0  0.00000000000E+00  0.00000000000E+00  0.19264991537E+02  0.27769713735E+02  0.20000427545E+02 0.  0.
        -11    1    3    3    0    0 -0.70010845052E+01 -0.71404263130E+01  0.95514992483E+01  0.13828666253E+02  0.51100000000E-03 0.  1.
         11    1    3    3    0    0  0.70010845052E+01  0.71404263130E+01  0.97134922890E+01  0.13941047482E+02  0.51100000000E-03 0. -1.
<mgrwt>
<rscale>  0 0.20000428E+02</rscale>
<asrwt>0</asrwt>
<pdfrwt beam="1">  1        4 0.36180542E-02 0.20000428E+02</pdfrwt>
<pdfrwt beam="2">  1       -4 0.65420941E-03 0.20000428E+02</pdfrwt>
<totfact> 0.12573365E+06</totfact>
</mgrwt>
</event>
<event>
 5    1  0.1154861E-006  0.2000049E+02  0.7818608E-02  0.1745318E+00
         -4   -1    0    0    0  501 -0.00000000000E+00  0.00000000000E+00  0.89572694304E+02  0.89583949259E+02  0.14200000000E+01 0. -1.
          4   -1    0    0  501    0  0.00000000000E+00 -0.00000000000E+00 -0.64895932622E+00  0.15612649381E+01  0.14200000000E+01 0.  1.
       1023    2    1    2    0    0  0.00000000000E+00  0.00000000000E+00  0.88923734977E+02  0.91145214197E+02  0.20000485711E+02 0.  0.
        -11    1    3    3    0    0 -0.73651560925E+01  0.67645520975E+01  0.44520858091E+02  0.45630159924E+02  0.51100000000E-03 0.  1.
         11    1    3    3    0    0  0.73651560925E+01 -0.67645520975E+01  0.44402876887E+02  0.45515054273E+02  0.51100000000E-03 0. -1.
<mgrwt>
<rscale>  0 0.20000486E+02</rscale>
<asrwt>0</asrwt>
<pdfrwt beam="2">  1        4 0.17088301E-03 0.20000486E+02</pdfrwt>
<pdfrwt beam="1">  1       -4 0.13851458E-01 0.20000486E+02</pdfrwt>
<totfact> 0.10060474E+06</totfact>
</mgrwt>
</event>
<event>
 5    1  0.1154861E-006  0.2000137E+02  0.7818608E-02  0.1745301E+00
         -4   -1    0    0    0  501 -0.00000000000E+00  0.00000000000E+00  0.87572555403E+02  0.87584067386E+02  0.14200000000E+01 0.  1.
          4   -1    0    0  501    0  0.00000000000E+00 -0.00000000000E+00 -0.68452236836E+00  0.15763790384E+01  0.14200000000E+01 0. -1.
       1023    2    1    2    0    0  0.00000000000E+00  0.00000000000E+00  0.86888033035E+02  0.89160446424E+02  0.20001373001E+02 0.  0.
        -11    1    3    3    0    0  0.98949106366E+01  0.14483278802E+01  0.43075882004E+02  0.44221471265E+02  0.51100000000E-03 0.  1.
         11    1    3    3    0    0 -0.98949106366E+01 -0.14483278802E+01  0.43812151031E+02  0.44938975159E+02  0.51100000000E-03 0. -1.
<mgrwt>
<rscale>  0 0.20001373E+02</rscale>
<asrwt>0</asrwt>
<pdfrwt beam="2">  1        4 0.17480097E-03 0.20001373E+02</pdfrwt>
<pdfrwt beam="1">  1       -4 0.13542196E-01 0.20001373E+02</pdfrwt>
<totfact> 0.10119963E+06</totfact>
</mgrwt>
</event>
<event>
 5    1  0.1154861E-006  0.2000165E+02  0.7818608E-02  0.1745295E+00
          4   -1    0    0  501    0  0.00000000000E+00  0.00000000000E+00  0.62644056296E+02  0.62660148334E+02  0.14200000000E+01 0. -1.
         -4   -1    0    0    0  501 -0.00000000000E+00 -0.00000000000E+00 -0.12612441209E+01  0.18992463591E+01  0.14200000000E+01 0.  1.
       1023    2    1    2    0    0  0.00000000000E+00  0.00000000000E+00  0.61382812176E+02  0.64559394693E+02  0.20001645247E+02 0.  0.
        -11    1    3    3    0    0  0.36940121334E+01  0.92930193885E+01  0.30360383152E+02  0.31964962074E+02  0.51100000000E-03 0.  1.
         11    1    3    3    0    0 -0.36940121334E+01 -0.92930193885E+01  0.31022429024E+02  0.32594432620E+02  0.51100000000E-03 0. -1.
<mgrwt>
<rscale>  0 0.20001645E+02</rscale>
<asrwt>0</asrwt>
<pdfrwt beam="1">  1        4 0.96878630E-02 0.20001645E+02</pdfrwt>
<pdfrwt beam="2">  1       -4 0.24435248E-03 0.20001645E+02</pdfrwt>
<totfact> 0.10945394E+06</totfact>
</mgrwt>
</event>
<event>
 5    1  0.1186258E-006  0.2000087E+02  0.7818608E-02  0.1745311E+00
         -4   -1    0    0    0  501 -0.00000000000E+00  0.00000000000E+00  0.13863666581E+02  0.13936199305E+02  0.14200000000E+01 0.  1.
          4   -1    0    0  501    0  0.00000000000E+00 -0.00000000000E+00 -0.70514122887E+01  0.71929698501E+01  0.14200000000E+01 0. -1.
       1023    2    1    2    0    0  0.00000000000E+00  0.00000000000E+00  0.68122542928E+01  0.21129169156E+02  0.20000874497E+02 0.  0.
        -11    1    3    3    0    0 -0.30953114932E+01 -0.95093399054E+01  0.33895503127E+01  0.10559240042E+02  0.51100000000E-03 0.  1.
         11    1    3    3    0    0  0.30953114932E+01  0.95093399054E+01  0.34227039801E+01  0.10569929114E+02  0.51100000000E-03 0. -1.
<mgrwt>
<rscale>  0 0.20000874E+02</rscale>
<asrwt>0</asrwt>
<pdfrwt beam="2">  1        4 0.11013012E-02 0.20000874E+02</pdfrwt>
<pdfrwt beam="1">  1       -4 0.21493402E-02 0.20000874E+02</pdfrwt>
<totfact> 0.12945979E+06</totfact>
</mgrwt>
</event>
<event>
 5    1  0.1154861E-006  0.2000036E+02  0.7818608E-02  0.1745321E+00
          4   -1    0    0  501    0  0.00000000000E+00  0.00000000000E+00  0.36328803373E+01  0.39005409298E+01  0.14200000000E+01 0.  1.
         -4   -1    0    0    0  501 -0.00000000000E+00 -0.00000000000E+00 -0.26261794815E+02  0.26300157165E+02  0.14200000000E+01 0. -1.
       1023    2    1    2    0    0  0.00000000000E+00  0.00000000000E+00 -0.22628914478E+02  0.30200698095E+02  0.20000359871E+02 0.  0.
        -11    1    3    3    0    0  0.99957762203E+01 -0.29670658716E+00 -0.11321448493E+02  0.15105587486E+02  0.51100000000E-03 0.  1.
         11    1    3    3    0    0 -0.99957762203E+01  0.29670658716E+00 -0.11307465984E+02  0.15095110609E+02  0.51100000000E-03 0. -1.
<mgrwt>
<rscale>  0 0.20000360E+02</rscale>
<asrwt>0</asrwt>
<pdfrwt beam="1">  1        4 0.58244491E-03 0.20000360E+02</pdfrwt>
<pdfrwt beam="2">  1       -4 0.40638162E-02 0.20000360E+02</pdfrwt>
<totfact> 0.12444816E+06</totfact>
</mgrwt>
</event>
<event>
 5    1  0.1154861E-006  0.2000027E+02  0.7818608E-02  0.1745323E+00
          4   -1    0    0  501    0  0.00000000000E+00  0.00000000000E+00  0.79291530828E+02  0.79304244912E+02  0.14200000000E+01 0. -1.
         -4   -1    0    0    0  501 -0.00000000000E+00 -0.00000000000E+00 -0.84454309145E+00  0.16521661640E+01  0.14200000000E+01 0.  1.
       1023    2    1    2    0    0  0.00000000000E+00  0.00000000000E+00  0.78446987737E+02  0.80956411076E+02  0.20000265232E+02 0.  0.
        -11    1    3    3    0    0 -0.31518000246E+01 -0.94903957357E+01  0.39083423614E+02  0.40342477071E+02  0.51100000000E-03 0.  1.
         11    1    3    3    0    0  0.31518000246E+01  0.94903957357E+01  0.39363564123E+02  0.40613934005E+02  0.51100000000E-03 0. -1.
<mgrwt>
<rscale>  0 0.20000265E+02</rscale>
<asrwt>0</asrwt>
<pdfrwt beam="1">  1        4 0.12261799E-01 0.20000265E+02</pdfrwt>
<pdfrwt beam="2">  1       -4 0.19303258E-03 0.20000265E+02</pdfrwt>
<totfact> 0.10379734E+06</totfact>
</mgrwt>
</event>
<event>
 5    1  0.1155371E-006  0.2000052E+02  0.7818608E-02  0.1745318E+00
          4   -1    0    0  501    0  0.00000000000E+00  0.00000000000E+00  0.10255142792E+02  0.10352987669E+02  0.14200000000E+01 0. -1.
         -4   -1    0    0    0  501 -0.00000000000E+00 -0.00000000000E+00 -0.95548508218E+01  0.96597916244E+01  0.14200000000E+01 0.  1.
       1023    2    1    2    0    0  0.00000000000E+00  0.00000000000E+00  0.70029197021E+00  0.20012779294E+02  0.20000523149E+02 0.  0.
        -11    1    3    3    0    0  0.99999648070E+01  0.42043894822E-01  0.41474144163E+00  0.10008649987E+02  0.51100000000E-03 0. -1.
         11    1    3    3    0    0 -0.99999648070E+01 -0.42043894822E-01  0.28555052857E+00  0.10004129307E+02  0.51100000000E-03 0.  1.
<mgrwt>
<rscale>  0 0.20000523E+02</rscale>
<asrwt>0</asrwt>
<pdfrwt beam="1">  1        4 0.15933132E-02 0.20000523E+02</pdfrwt>
<pdfrwt beam="2">  1       -4 0.14855759E-02 0.20000523E+02</pdfrwt>
<totfact> 0.13012591E+06</totfact>
</mgrwt>
</event>
<event>
 5    1  0.1154861E-006  0.2000063E+02  0.7818608E-02  0.1745315E+00
         -4   -1    0    0    0  501 -0.00000000000E+00  0.00000000000E+00  0.60989560207E+02  0.61006088665E+02  0.14200000000E+01 0. -1.
          4   -1    0    0  501    0  0.00000000000E+00 -0.00000000000E+00 -0.13123261552E+01  0.19335459492E+01  0.14200000000E+01 0.  1.
       1023    2    1    2    0    0  0.00000000000E+00  0.00000000000E+00  0.59677234052E+02  0.62939634615E+02  0.20000633523E+02 0.  0.
        -11    1    3    3    0    0 -0.46171731333E+01  0.88706257670E+01  0.29859921320E+02  0.31490017318E+02  0.51100000000E-03 0.  1.
         11    1    3    3    0    0  0.46171731333E+01 -0.88706257670E+01  0.29817312732E+02  0.31449617296E+02  0.51100000000E-03 0. -1.
<mgrwt>
<rscale>  0 0.20000634E+02</rscale>
<asrwt>0</asrwt>
<pdfrwt beam="2">  1        4 0.25095387E-03 0.20000634E+02</pdfrwt>
<pdfrwt beam="1">  1       -4 0.94320677E-02 0.20000634E+02</pdfrwt>
<totfact> 0.11006716E+06</totfact>
</mgrwt>
</event>
<event>
 5    1  0.1174278E-006  0.2000117E+02  0.7818608E-02  0.1745305E+00
         -4   -1    0    0    0  501 -0.00000000000E+00  0.00000000000E+00  0.94373025842E+01  0.95435360358E+01  0.14200000000E+01 0. -1.
          4   -1    0    0  501    0  0.00000000000E+00 -0.00000000000E+00 -0.10383349316E+02  0.10479997282E+02  0.14200000000E+01 0.  1.
       1023    2    1    2    0    0  0.00000000000E+00  0.00000000000E+00 -0.94604673193E+00  0.20023533317E+02  0.20001172018E+02 0.  0.
        -11    1    3    3    0    0  0.31730553105E+01  0.94834185963E+01 -0.38230204645E+00  0.10007480372E+02  0.51100000000E-03 0. -1.
         11    1    3    3    0    0 -0.31730553105E+01 -0.94834185963E+01 -0.56374468548E+00  0.10016052946E+02  0.51100000000E-03 0.  1.
<mgrwt>
<rscale>  0 0.20001172E+02</rscale>
<asrwt>0</asrwt>
<pdfrwt beam="2">  1        4 0.16130446E-02 0.20001172E+02</pdfrwt>
<pdfrwt beam="1">  1       -4 0.14674990E-02 0.20001172E+02</pdfrwt>
<totfact> 0.13011091E+06</totfact>
</mgrwt>
</event>
<event>
 5    1  0.1162814E-006  0.2000061E+02  0.7818608E-02  0.1745316E+00
          4   -1    0    0  501    0  0.00000000000E+00  0.00000000000E+00  0.10750157983E+02  0.10843537091E+02  0.14200000000E+01 0. -1.
         -4   -1    0    0    0  501 -0.00000000000E+00 -0.00000000000E+00 -0.91139274411E+01  0.92238860250E+01  0.14200000000E+01 0.  1.
       1023    2    1    2    0    0  0.00000000000E+00  0.00000000000E+00  0.16362305416E+01  0.20067423116E+02  0.20000605495E+02 0.  0.
        -11    1    3    3    0    0 -0.83427839040E+00  0.99654027192E+01  0.84619066230E+00  0.10036000732E+02  0.51100000000E-03 0. -1.
         11    1    3    3    0    0  0.83427839040E+00 -0.99654027192E+01  0.79003987933E+00  0.10031422385E+02  0.51100000000E-03 0.  1.
<mgrwt>
<rscale>  0 0.20000605E+02</rscale>
<asrwt>0</asrwt>
<pdfrwt beam="1">  1        4 0.16695118E-02 0.20000605E+02</pdfrwt>
<pdfrwt beam="2">  1       -4 0.14177840E-02 0.20000605E+02</pdfrwt>
<totfact> 0.13009240E+06</totfact>
</mgrwt>
</event>
<event>
 5    1  0.1202266E-006  0.2000078E+02  0.7818608E-02  0.1745312E+00
         -4   -1    0    0    0  501 -0.00000000000E+00  0.00000000000E+00  0.19085234624E+02  0.19137987895E+02  0.14200000000E+01 0. -1.
          4   -1    0    0  501    0  0.00000000000E+00 -0.00000000000E+00 -0.50826266784E+01  0.52772619750E+01  0.14200000000E+01 0.  1.
       1023    2    1    2    0    0  0.00000000000E+00  0.00000000000E+00  0.14002607946E+02  0.24415249870E+02  0.20000784908E+02 0.  0.
        -11    1    3    3    0    0  0.98216724319E+01 -0.18821459562E+01  0.70150178846E+01  0.12215490123E+02  0.51100000000E-03 0.  1.
         11    1    3    3    0    0 -0.98216724319E+01  0.18821459562E+01  0.69875900615E+01  0.12199759747E+02  0.51100000000E-03 0. -1.
<mgrwt>
<rscale>  0 0.20000785E+02</rscale>
<asrwt>0</asrwt>
<pdfrwt beam="2">  1        4 0.80097244E-03 0.20000785E+02</pdfrwt>
<pdfrwt beam="1">  1       -4 0.29552199E-02 0.20000785E+02</pdfrwt>
<totfact> 0.12757347E+06</totfact>
</mgrwt>
</event>
<event>
 5    1  0.1154861E-006  0.2000068E+02  0.7818608E-02  0.1745315E+00
         -4   -1    0    0    0  501 -0.00000000000E+00  0.00000000000E+00  0.58229172802E+00  0.15347519853E+01  0.14200000000E+01 0.  1.
          4   -1    0    0  501    0  0.00000000000E+00 -0.00000000000E+00 -0.93517495509E+02  0.93528275758E+02  0.14200000000E+01 0. -1.
       1023    2    1    2    0    0  0.00000000000E+00  0.00000000000E+00 -0.92935203781E+02  0.95063027744E+02  0.20000678537E+02 0.  0.
        -11    1    3    3    0    0 -0.45662465840E+01  0.88969494226E+01 -0.46364743022E+02  0.47430957323E+02  0.51100000000E-03 0. -1.
         11    1    3    3    0    0  0.45662465840E+01 -0.88969494226E+01 -0.46570460760E+02  0.47632070420E+02  0.51100000000E-03 0.  1.
<mgrwt>
<rscale>  0 0.20000679E+02</rscale>
<asrwt>0</asrwt>
<pdfrwt beam="2">  1        4 0.14461396E-01 0.20000679E+02</pdfrwt>
<pdfrwt beam="1">  1       -4 0.16367884E-03 0.20000679E+02</pdfrwt>
<totfact> 0.99434713E+05</totfact>
</mgrwt>
</event>
<event>
 5    1  0.1164956E-006  0.2000073E+02  0.7818608E-02  0.1745313E+00
         -4   -1    0    0    0  501 -0.00000000000E+00  0.00000000000E+00  0.46266961734E+01  0.48397022099E+01  0.14200000000E+01 0. -1.
          4   -1    0    0  501    0  0.00000000000E+00 -0.00000000000E+00 -0.20891261691E+02  0.20939465490E+02  0.14200000000E+01 0.  1.
       1023    2    1    2    0    0  0.00000000000E+00  0.00000000000E+00 -0.16264565517E+02  0.25779167700E+02  0.20000734883E+02 0.  0.
        -11    1    3    3    0    0  0.58761741739E+01 -0.80917443948E+01 -0.80807516118E+01  0.12857071873E+02  0.51100000000E-03 0. -1.
         11    1    3    3    0    0 -0.58761741739E+01  0.80917443948E+01 -0.81838139054E+01  0.12922095827E+02  0.51100000000E-03 0.  1.
<mgrwt>
<rscale>  0 0.20000735E+02</rscale>
<asrwt>0</asrwt>
<pdfrwt beam="2">  1        4 0.32341333E-02 0.20000735E+02</pdfrwt>
<pdfrwt beam="1">  1       -4 0.73189248E-03 0.20000735E+02</pdfrwt>
<totfact> 0.12681394E+06</totfact>
</mgrwt>
</event>
<event>
 5    1  0.1154861E-006  0.2000626E+02  0.7818608E-02  0.1745204E+00
          4   -1    0    0  501    0  0.00000000000E+00  0.00000000000E+00  0.30289809774E+01  0.33453140005E+01  0.14200000000E+01 0.  1.
         -4   -1    0    0    0  501 -0.00000000000E+00 -0.00000000000E+00 -0.31062305521E+02  0.31094745927E+02  0.14200000000E+01 0. -1.
       1023    2    1    2    0    0  0.00000000000E+00  0.00000000000E+00 -0.28033324544E+02  0.34440059928E+02  0.20006260092E+02 0.  0.
        -11    1    3    3    0    0 -0.50660877235E+01  0.86249711280E+01 -0.14163125122E+02  0.17339246964E+02  0.51100000000E-03 0. -1.
         11    1    3    3    0    0  0.50660877235E+01 -0.86249711280E+01 -0.13870199421E+02  0.17100812964E+02  0.51100000000E-03 0.  1.
<mgrwt>
<rscale>  0 0.20006260E+02</rscale>
<asrwt>0</asrwt>
<pdfrwt beam="1">  1        4 0.49282582E-03 0.20006260E+02</pdfrwt>
<pdfrwt beam="2">  1       -4 0.48056447E-02 0.20006260E+02</pdfrwt>
<totfact> 0.12221905E+06</totfact>
</mgrwt>
</event>
<event>
 5    1  0.1154861E-006  0.2000052E+02  0.7818608E-02  0.1745318E+00
         -4   -1    0    0    0  501 -0.00000000000E+00  0.00000000000E+00  0.26299718444E+02  0.26338025557E+02  0.14200000000E+01 0. -1.
          4   -1    0    0  501    0  0.00000000000E+00 -0.00000000000E+00 -0.36273253660E+01  0.38953676734E+01  0.14200000000E+01 0.  1.
       1023    2    1    2    0    0  0.00000000000E+00  0.00000000000E+00  0.22672393078E+02  0.30233393231E+02  0.20000516452E+02 0.  0.
        -11    1    3    3    0    0  0.53016019475E+01 -0.84792635555E+01  0.11311327174E+02  0.15098046773E+02  0.51100000000E-03 0.  1.
         11    1    3    3    0    0 -0.53016019475E+01  0.84792635555E+01  0.11361065905E+02  0.15135346458E+02  0.51100000000E-03 0. -1.
<mgrwt>
<rscale>  0 0.20000516E+02</rscale>
<asrwt>0</asrwt>
<pdfrwt beam="2">  1        4 0.58161539E-03 0.20000516E+02</pdfrwt>
<pdfrwt beam="1">  1       -4 0.40696759E-02 0.20000516E+02</pdfrwt>
<totfact> 0.12442915E+06</totfact>
</mgrwt>
</event>
<event>
 5    1  0.1154861E-006  0.2000390E+02  0.7818608E-02  0.1745250E+00
          4   -1    0    0  501    0  0.00000000000E+00  0.00000000000E+00  0.14327655037E+01  0.20172300287E+01  0.14200000000E+01 0. -1.
         -4   -1    0    0    0  501 -0.00000000000E+00 -0.00000000000E+00 -0.57398993948E+02  0.57416556029E+02  0.14200000000E+01 0.  1.
       1023    2    1    2    0    0  0.00000000000E+00  0.00000000000E+00 -0.55966228444E+02  0.59433786058E+02  0.20003904591E+02 0.  0.
        -11    1    3    3    0    0  0.99983672560E+01 -0.18152468048E+00 -0.28567981180E+02  0.30267636974E+02  0.51100000000E-03 0.  1.
         11    1    3    3    0    0 -0.99983672560E+01  0.18152468048E+00 -0.27398247264E+02  0.29166149084E+02  0.51100000000E-03 0. -1.
<mgrwt>
<rscale>  0 0.20003905E+02</rscale>
<asrwt>0</asrwt>
<pdfrwt beam="1">  1        4 0.26673524E-03 0.20003905E+02</pdfrwt>
<pdfrwt beam="2">  1       -4 0.88769227E-02 0.20003905E+02</pdfrwt>
<totfact> 0.11136265E+06</totfact>
</mgrwt>
</event>
<event>
 5    1  0.1154861E-006  0.2000008E+02  0.7818608E-02  0.1745326E+00
          4   -1    0    0  501    0  0.00000000000E+00  0.00000000000E+00  0.73343578760E+01  0.74705558999E+01  0.14200000000E+01 0.  1.
         -4   -1    0    0    0  501 -0.00000000000E+00 -0.00000000000E+00 -0.13334895046E+02  0.13410288061E+02  0.14200000000E+01 0. -1.
       1023    2    1    2    0    0  0.00000000000E+00  0.00000000000E+00 -0.60005371695E+01  0.20880843961E+02  0.20000079955E+02 0.  0.
        -11    1    3    3    0    0  0.17516216457E+01  0.98454001778E+01 -0.30282097563E+01  0.10448451447E+02  0.51100000000E-03 0.  1.
         11    1    3    3    0    0 -0.17516216457E+01 -0.98454001778E+01 -0.29723274133E+01  0.10432392514E+02  0.51100000000E-03 0. -1.
<mgrwt>
<rscale>  0 0.20000080E+02</rscale>
<asrwt>0</asrwt>
<pdfrwt beam="1">  1        4 0.11446390E-02 0.20000080E+02</pdfrwt>
<pdfrwt beam="2">  1       -4 0.20677985E-02 0.20000080E+02</pdfrwt>
<totfact> 0.12961685E+06</totfact>
</mgrwt>
</event>
<event>
 5    1  0.1154861E-006  0.2000100E+02  0.7818608E-02  0.1745308E+00
         -4   -1    0    0    0  501 -0.00000000000E+00  0.00000000000E+00  0.29596061530E+00  0.14505146279E+01  0.14200000000E+01 0.  1.
          4   -1    0    0  501    0  0.00000000000E+00 -0.00000000000E+00 -0.11336583041E+03  0.11337472339E+03  0.14200000000E+01 0. -1.
       1023    2    1    2    0    0  0.00000000000E+00  0.00000000000E+00 -0.11306986979E+03  0.11482523802E+03  0.20000995757E+02 0.  0.
        -11    1    3    3    0    0  0.94379168792E+01  0.33056338939E+01 -0.57063201352E+02  0.57932809696E+02  0.51100000000E-03 0.  1.
         11    1    3    3    0    0 -0.94379168792E+01 -0.33056338939E+01 -0.56006668441E+02  0.56892428324E+02  0.51100000000E-03 0. -1.
<mgrwt>
<rscale>  0 0.20000996E+02</rscale>
<asrwt>0</asrwt>
<pdfrwt beam="2">  1        4 0.17530381E-01 0.20000996E+02</pdfrwt>
<pdfrwt beam="1">  1       -4 0.13502842E-03 0.20000996E+02</pdfrwt>
<totfact> 0.93972063E+05</totfact>
</mgrwt>
</event>
<event>
 5    1  0.1233633E-006  0.2000102E+02  0.7818608E-02  0.1745308E+00
          4   -1    0    0  501    0  0.00000000000E+00  0.00000000000E+00  0.47024661656E+01  0.49121877039E+01  0.14200000000E+01 0. -1.
         -4   -1    0    0    0  501 -0.00000000000E+00 -0.00000000000E+00 -0.20568961216E+02  0.20617918554E+02  0.14200000000E+01 0.  1.
       1023    2    1    2    0    0  0.00000000000E+00  0.00000000000E+00 -0.15866495051E+02  0.25530106258E+02  0.20001016483E+02 0.  0.
        -11    1    3    3    0    0  0.91342771353E+01  0.40708540995E+01 -0.78600000156E+01  0.12719531139E+02  0.51100000000E-03 0.  1.
         11    1    3    3    0    0 -0.91342771353E+01 -0.40708540995E+01 -0.80064950350E+01  0.12810575119E+02  0.51100000000E-03 0. -1.
<mgrwt>
<rscale>  0 0.20001016E+02</rscale>
<asrwt>0</asrwt>
<pdfrwt beam="1">  1        4 0.74335472E-03 0.20001016E+02</pdfrwt>
<pdfrwt beam="2">  1       -4 0.31843539E-02 0.20001016E+02</pdfrwt>
<totfact> 0.12694804E+06</totfact>
</mgrwt>
</event>
<event>
 4    1  0.1154861E-006  0.2001781E+02  0.7818608E-02  0.1744974E+00
          4   -1    0    0  501    0  0.00000000000E+00  0.00000000000E+00  0.99432614388E+02  0.99442753402E+02  0.14200000000E+01 0.  1.
         -4   -1    0    0    0  501 -0.00000000000E+00 -0.00000000000E+00 -0.49180784731E+00  0.15027557881E+01  0.14200000000E+01 0. -1.
        -11    1    1    2    0    0  0.23484923501E+01 -0.97240275093E+01  0.47828366206E+02  0.48863327164E+02  0.51100000000E-03 0.  1.
         11    1    1    2    0    0 -0.23484923501E+01  0.97240275093E+01  0.51112440335E+02  0.52082182026E+02  0.51100000000E-03 0. -1.
<mgrwt>
<rscale>  0 0.20017808E+02</rscale>
<asrwt>0</asrwt>
<pdfrwt beam="1">  1        4 0.15375871E-01 0.20017808E+02</pdfrwt>
<pdfrwt beam="2">  1       -4 0.15420789E-03 0.20017808E+02</pdfrwt>
<totfact> 0.97570690E+05</totfact>
</mgrwt>
</event>
<event>
 5    1  0.1162035E-006  0.2000233E+02  0.7818608E-02  0.1745282E+00
         -4   -1    0    0    0  501 -0.00000000000E+00  0.00000000000E+00  0.42229936333E+02  0.42253803648E+02  0.14200000000E+01 0. -1.
          4   -1    0    0  501    0  0.00000000000E+00 -0.00000000000E+00 -0.21288772655E+01  0.25590073098E+01  0.14200000000E+01 0.  1.
       1023    2    1    2    0    0  0.00000000000E+00  0.00000000000E+00  0.40101059068E+02  0.44812810958E+02  0.20002327054E+02 0.  0.
        -11    1    3    3    0    0 -0.93938384864E+01  0.34295052611E+01  0.19753615483E+02  0.22140709852E+02  0.51100000000E-03 0.  1.
         11    1    3    3    0    0  0.93938384864E+01 -0.34295052611E+01  0.20347443585E+02  0.22672101106E+02  0.51100000000E-03 0. -1.
<mgrwt>
<rscale>  0 0.20002327E+02</rscale>
<asrwt>0</asrwt>
<pdfrwt beam="2">  1        4 0.36244249E-03 0.20002327E+02</pdfrwt>
<pdfrwt beam="1">  1       -4 0.65318355E-02 0.20002327E+02</pdfrwt>
<totfact> 0.11741332E+06</totfact>
</mgrwt>
</event>
<event>
 5    1  0.1154861E-006  0.2000059E+02  0.7818608E-02  0.1745316E+00
          4   -1    0    0  501    0  0.00000000000E+00  0.00000000000E+00  0.68050157612E+02  0.68064971542E+02  0.14200000000E+01 0.  1.
         -4   -1    0    0    0  501 -0.00000000000E+00 -0.00000000000E+00 -0.11080188628E+01  0.18011401390E+01  0.14200000000E+01 0. -1.
       1023    2    1    2    0    0  0.00000000000E+00  0.00000000000E+00  0.66942138749E+02  0.69866111681E+02  0.20000590519E+02 0.  0.
        -11    1    3    3    0    0  0.46113418689E+00  0.99895663036E+01  0.33620313113E+02  0.35076053566E+02  0.51100000000E-03 0.  1.
         11    1    3    3    0    0 -0.46113418689E+00 -0.99895663036E+01  0.33321825636E+02  0.34790058115E+02  0.51100000000E-03 0. -1.
<mgrwt>
<rscale>  0 0.20000591E+02</rscale>
<asrwt>0</asrwt>
<pdfrwt beam="1">  1        4 0.10523711E-01 0.20000591E+02</pdfrwt>
<pdfrwt beam="2">  1       -4 0.22492101E-03 0.20000591E+02</pdfrwt>
<totfact> 0.10754892E+06</totfact>
</mgrwt>
</event>
<event>
 5    1  0.1154861E-006  0.2000023E+02  0.7818608E-02  0.1745324E+00
          4   -1    0    0  501    0  0.00000000000E+00  0.00000000000E+00  0.29233277886E+02  0.29267745659E+02  0.14200000000E+01 0.  1.
         -4   -1    0    0    0  501 -0.00000000000E+00 -0.00000000000E+00 -0.32353109526E+01  0.35332190648E+01  0.14200000000E+01 0. -1.
       1023    2    1    2    0    0  0.00000000000E+00  0.00000000000E+00  0.25997966934E+02  0.32800964724E+02  0.20000225052E+02 0.  0.
        -11    1    3    3    0    0 -0.94836950563E+01 -0.31720001625E+01  0.13021786598E+02  0.16418556070E+02  0.51100000000E-03 0.  1.
         11    1    3    3    0    0  0.94836950563E+01  0.31720001625E+01  0.12976180336E+02  0.16382408654E+02  0.51100000000E-03 0. -1.
<mgrwt>
<rscale>  0 0.20000225E+02</rscale>
<asrwt>0</asrwt>
<pdfrwt beam="1">  1        4 0.45229950E-02 0.20000225E+02</pdfrwt>
<pdfrwt beam="2">  1       -4 0.52330750E-03 0.20000225E+02</pdfrwt>
<totfact> 0.12311474E+06</totfact>
</mgrwt>
</event>
<event>
 4    1  0.1154861E-006  0.2002883E+02  0.7818608E-02  0.1744755E+00
         -4   -1    0    0    0  501 -0.00000000000E+00  0.00000000000E+00  0.95151274685E+02  0.95161869854E+02  0.14200000000E+01 0. -1.
          4   -1    0    0  501    0  0.00000000000E+00 -0.00000000000E+00 -0.56013599068E+00  0.15264836481E+01  0.14200000000E+01 0.  1.
        -11    1    1    2    0    0  0.37524014104E+01 -0.92819890214E+01  0.48403879326E+02  0.49428446977E+02  0.51100000000E-03 0. -1.
         11    1    1    2    0    0 -0.37524014104E+01  0.92819890214E+01  0.46187259368E+02  0.47259906525E+02  0.51100000000E-03 0.  1.
<mgrwt>
<rscale>  0 0.20028834E+02</rscale>
<asrwt>0</asrwt>
<pdfrwt beam="2">  1        4 0.16132421E-03 0.20028834E+02</pdfrwt>
<pdfrwt beam="1">  1       -4 0.14713808E-01 0.20028834E+02</pdfrwt>
<totfact> 0.98681582E+05</totfact>
</mgrwt>
</event>
<event>
 5    1  0.1189132E-006  0.2000077E+02  0.7818608E-02  0.1745313E+00
          4   -1    0    0  501    0  0.00000000000E+00  0.00000000000E+00  0.48691490946E+01  0.50719831334E+01  0.14200000000E+01 0.  1.
         -4   -1    0    0    0  501 -0.00000000000E+00 -0.00000000000E+00 -0.19891326857E+02  0.19941947852E+02  0.14200000000E+01 0. -1.
       1023    2    1    2    0    0  0.00000000000E+00  0.00000000000E+00 -0.15022177762E+02  0.25013930985E+02  0.20000772951E+02 0.  0.
        -11    1    3    3    0    0  0.57187374048E+01 -0.82036665858E+01 -0.75864028081E+01  0.12552195457E+02  0.51100000000E-03 0. -1.
         11    1    3    3    0    0 -0.57187374048E+01  0.82036665858E+01 -0.74357749541E+01  0.12461735529E+02  0.51100000000E-03 0.  1.
<mgrwt>
<rscale>  0 0.20000773E+02</rscale>
<asrwt>0</asrwt>
<pdfrwt beam="1">  1        4 0.76859641E-03 0.20000773E+02</pdfrwt>
<pdfrwt beam="2">  1       -4 0.30797006E-02 0.20000773E+02</pdfrwt>
<totfact> 0.12723817E+06</totfact>
</mgrwt>
</event>
<event>
 5    1  0.1175559E-006  0.2000125E+02  0.7818608E-02  0.1745303E+00
          4   -1    0    0  501    0  0.00000000000E+00  0.00000000000E+00  0.34569954604E+01  0.37372740886E+01  0.14200000000E+01 0. -1.
         -4   -1    0    0    0  501 -0.00000000000E+00 -0.00000000000E+00 -0.27504068114E+02  0.27540700115E+02  0.14200000000E+01 0.  1.
       1023    2    1    2    0    0  0.00000000000E+00  0.00000000000E+00 -0.24047072653E+02  0.31277974203E+02  0.20001249138E+02 0.  0.
        -11    1    3    3    0    0  0.75346920992E+01  0.65756318759E+01 -0.11954093928E+02  0.15585598529E+02  0.51100000000E-03 0.  1.
         11    1    3    3    0    0 -0.75346920992E+01 -0.65756318759E+01 -0.12092978726E+02  0.15692375675E+02  0.51100000000E-03 0. -1.
<mgrwt>
<rscale>  0 0.20001249E+02</rscale>
<asrwt>0</asrwt>
<pdfrwt beam="1">  1        4 0.55622321E-03 0.20001249E+02</pdfrwt>
<pdfrwt beam="2">  1       -4 0.42557727E-02 0.20001249E+02</pdfrwt>
<totfact> 0.12387932E+06</totfact>
</mgrwt>
</event>
<event>
 5    1  0.1154861E-006  0.2000425E+02  0.7818608E-02  0.1745244E+00
         -4   -1    0    0    0  501 -0.00000000000E+00  0.00000000000E+00  0.61290350560E+01  0.62913806686E+01  0.14200000000E+01 0.  1.
          4   -1    0    0  501    0  0.00000000000E+00 -0.00000000000E+00 -0.15914997990E+02  0.15978221460E+02  0.14200000000E+01 0. -1.
       1023    2    1    2    0    0  0.00000000000E+00  0.00000000000E+00 -0.97859629344E+01  0.22269602129E+02  0.20004252259E+02 0.  0.
        -11    1    3    3    0    0 -0.38443729744E+01 -0.92328495550E+01 -0.47444046571E+01  0.11069511746E+02  0.51100000000E-03 0. -1.
         11    1    3    3    0    0  0.38443729744E+01  0.92328495550E+01 -0.50415582773E+01  0.11200090383E+02  0.51100000000E-03 0.  1.
<mgrwt>
<rscale>  0 0.20004252E+02</rscale>
<asrwt>0</asrwt>
<pdfrwt beam="2">  1        4 0.24658127E-02 0.20004252E+02</pdfrwt>
<pdfrwt beam="1">  1       -4 0.96027994E-03 0.20004252E+02</pdfrwt>
<totfact> 0.12875023E+06</totfact>
</mgrwt>
</event>
<event>
 5    1  0.1154861E-006  0.2000268E+02  0.7818608E-02  0.1745275E+00
         -4   -1    0    0    0  501 -0.00000000000E+00  0.00000000000E+00  0.11766507110E+03  0.11767363918E+03  0.14200000000E+01 0. -1.
          4   -1    0    0  501    0  0.00000000000E+00 -0.00000000000E+00 -0.24241160060E+00  0.14405427394E+01  0.14200000000E+01 0.  1.
       1023    2    1    2    0    0  0.00000000000E+00  0.00000000000E+00  0.11742265950E+03  0.11911418192E+03  0.20002684058E+02 0.  0.
        -11    1    3    3    0    0 -0.15193372694E+01 -0.98843164234E+01  0.57896023986E+02  0.58753363228E+02  0.51100000000E-03 0.  1.
         11    1    3    3    0    0  0.15193372694E+01  0.98843164234E+01  0.59526635517E+02  0.60360818692E+02  0.51100000000E-03 0. -1.
<mgrwt>
<rscale>  0 0.20002684E+02</rscale>
<asrwt>0</asrwt>
<pdfrwt beam="2">  1        4 0.13011719E-03 0.20002684E+02</pdfrwt>
<pdfrwt beam="1">  1       -4 0.18195131E-01 0.20002684E+02</pdfrwt>
<totfact> 0.92856975E+05</totfact>
</mgrwt>
</event>
<event>
 5    1  0.1154861E-006  0.2000027E+02  0.7818608E-02  0.1745323E+00
         -4   -1    0    0    0  501 -0.00000000000E+00  0.00000000000E+00  0.31470432126E+01  0.34525759922E+01  0.14200000000E+01 0. -1.
          4   -1    0    0  501    0  0.00000000000E+00 -0.00000000000E+00 -0.29982467560E+02  0.30016075043E+02  0.14200000000E+01 0.  1.
       1023    2    1    2    0    0  0.00000000000E+00  0.00000000000E+00 -0.26835424347E+02  0.33468651035E+02  0.20000265054E+02 0.  0.
        -11    1    3    3    0    0 -0.99315087603E+01 -0.11693352034E+01 -0.13382641603E+02  0.16706205662E+02  0.51100000000E-03 0.  1.
         11    1    3    3    0    0  0.99315087603E+01  0.11693352034E+01 -0.13452782744E+02  0.16762445373E+02  0.51100000000E-03 0. -1.
<mgrwt>
<rscale>  0 0.20000265E+02</rscale>
<asrwt>0</asrwt>
<pdfrwt beam="2">  1        4 0.46387748E-02 0.20000265E+02</pdfrwt>
<pdfrwt beam="1">  1       -4 0.51024823E-03 0.20000265E+02</pdfrwt>
<totfact> 0.12277791E+06</totfact>
</mgrwt>
</event>
<event>
 5    1  0.1154861E-006  0.2000049E+02  0.7818608E-02  0.1745318E+00
         -4   -1    0    0    0  501 -0.00000000000E+00  0.00000000000E+00  0.12884854679E+01  0.19174448626E+01  0.14200000000E+01 0.  1.
          4   -1    0    0  501    0  0.00000000000E+00 -0.00000000000E+00 -0.61748708299E+02  0.61765033608E+02  0.14200000000E+01 0. -1.
       1023    2    1    2    0    0  0.00000000000E+00  0.00000000000E+00 -0.60460222831E+02  0.63682478470E+02  0.20000487978E+02 0.  0.
        -11    1    3    3    0    0 -0.44982111528E+01 -0.89314598240E+01 -0.30233904638E+02  0.31844840525E+02  0.51100000000E-03 0.  1.
         11    1    3    3    0    0  0.44982111528E+01  0.89314598240E+01 -0.30226318193E+02  0.31837637945E+02  0.51100000000E-03 0. -1.
<mgrwt>
<rscale>  0 0.20000488E+02</rscale>
<asrwt>0</asrwt>
<pdfrwt beam="2">  1        4 0.95494367E-02 0.20000488E+02</pdfrwt>
<pdfrwt beam="1">  1       -4 0.24786587E-03 0.20000488E+02</pdfrwt>
<totfact> 0.10979162E+06</totfact>
</mgrwt>
</event>
<event>
 4    1  0.1154861E-006  0.2002182E+02  0.7818608E-02  0.1744895E+00
          4   -1    0    0  501    0  0.00000000000E+00  0.00000000000E+00  0.11377765489E+03  0.11378651569E+03  0.14200000000E+01 0.  1.
         -4   -1    0    0    0  501 -0.00000000000E+00 -0.00000000000E+00 -0.29375073815E+00  0.14500653420E+01  0.14200000000E+01 0. -1.
        -11    1    1    2    0    0  0.25951144779E+01  0.96621588015E+01  0.54696144515E+02  0.55603598417E+02  0.51100000000E-03 0.  1.
         11    1    1    2    0    0 -0.25951144779E+01 -0.96621588015E+01  0.58787759636E+02  0.59632982611E+02  0.51100000000E-03 0. -1.
<mgrwt>
<rscale>  0 0.20021816E+02</rscale>
<asrwt>0</asrwt>
<pdfrwt beam="1">  1        4 0.17593885E-01 0.20021816E+02</pdfrwt>
<pdfrwt beam="2">  1       -4 0.13482128E-03 0.20021816E+02</pdfrwt>
<totfact> 0.93671183E+05</totfact>
</mgrwt>
</event>
<event>
 5    1  0.1154861E-006  0.2000005E+02  0.7818608E-02  0.1745327E+00
         -4   -1    0    0    0  501 -0.00000000000E+00  0.00000000000E+00  0.54371405587E+00  0.15205344371E+01  0.14200000000E+01 0. -1.
          4   -1    0    0  501    0  0.00000000000E+00 -0.00000000000E+00 -0.95903454675E+02  0.95913966755E+02  0.14200000000E+01 0.  1.
       1023    2    1    2    0    0  0.00000000000E+00  0.00000000000E+00 -0.95359740620E+02  0.97434501192E+02  0.20000047288E+02 0.  0.
        -11    1    3    3    0    0  0.98577395110E+01  0.16808845184E+01 -0.47638650119E+02  0.48676908144E+02  0.51100000000E-03 0.  1.
         11    1    3    3    0    0 -0.98577395110E+01 -0.16808845184E+01 -0.47721090501E+02  0.48757593048E+02  0.51100000000E-03 0. -1.
<mgrwt>
<rscale>  0 0.20000047E+02</rscale>
<asrwt>0</asrwt>
<pdfrwt beam="2">  1        4 0.14830319E-01 0.20000047E+02</pdfrwt>
<pdfrwt beam="1">  1       -4 0.15959704E-03 0.20000047E+02</pdfrwt>
<totfact> 0.98748747E+05</totfact>
</mgrwt>
</event>
<event>
 5    1  0.1154861E-006  0.2000080E+02  0.7818608E-02  0.1745312E+00
          4   -1    0    0  501    0  0.00000000000E+00  0.00000000000E+00  0.16054610832E+01  0.21433397513E+01  0.14200000000E+01 0.  1.
         -4   -1    0    0    0  501 -0.00000000000E+00 -0.00000000000E+00 -0.52805873243E+02  0.52824962366E+02  0.14200000000E+01 0. -1.
       1023    2    1    2    0    0  0.00000000000E+00  0.00000000000E+00 -0.51200412160E+02  0.54968302117E+02  0.20000800792E+02 0.  0.
        -11    1    3    3    0    0  0.94129481981E+01 -0.33768108529E+01 -0.25708842352E+02  0.27585340684E+02  0.51100000000E-03 0.  1.
         11    1    3    3    0    0 -0.94129481981E+01  0.33768108529E+01 -0.25491569808E+02  0.27382961433E+02  0.51100000000E-03 0. -1.
<mgrwt>
<rscale>  0 0.20000801E+02</rscale>
<asrwt>0</asrwt>
<pdfrwt beam="1">  1        4 0.28983773E-03 0.20000801E+02</pdfrwt>
<pdfrwt beam="2">  1       -4 0.81668230E-02 0.20000801E+02</pdfrwt>
<totfact> 0.11315269E+06</totfact>
</mgrwt>
</event>
<event>
 5    1  0.1157357E-006  0.2000101E+02  0.7818608E-02  0.1745308E+00
          4   -1    0    0  501    0  0.00000000000E+00  0.00000000000E+00  0.29877987472E+02  0.29911712345E+02  0.14200000000E+01 0. -1.
         -4   -1    0    0    0  501 -0.00000000000E+00 -0.00000000000E+00 -0.31593628742E+01  0.34638091418E+01  0.14200000000E+01 0.  1.
       1023    2    1    2    0    0  0.00000000000E+00  0.00000000000E+00  0.26718624598E+02  0.33375521486E+02  0.20001013326E+02 0.  0.
        -11    1    3    3    0    0  0.29672653537E+01 -0.95500882645E+01  0.13299524703E+02  0.16639898050E+02  0.51100000000E-03 0. -1.
         11    1    3    3    0    0 -0.29672653537E+01  0.95500882645E+01  0.13419099895E+02  0.16735623436E+02  0.51100000000E-03 0.  1.
<mgrwt>
<rscale>  0 0.20001013E+02</rscale>
<asrwt>0</asrwt>
<pdfrwt beam="1">  1        4 0.46226265E-02 0.20001013E+02</pdfrwt>
<pdfrwt beam="2">  1       -4 0.51206901E-03 0.20001013E+02</pdfrwt>
<totfact> 0.12281534E+06</totfact>
</mgrwt>
</event>
<event>
 5    1  0.1154861E-006  0.2000525E+02  0.7818608E-02  0.1745224E+00
         -4   -1    0    0    0  501 -0.00000000000E+00  0.00000000000E+00  0.38636964054E+02  0.38663049431E+02  0.14200000000E+01 0.  1.
          4   -1    0    0  501    0  0.00000000000E+00 -0.00000000000E+00 -0.23658077737E+01  0.27592474377E+01  0.14200000000E+01 0. -1.
       1023    2    1    2    0    0  0.00000000000E+00  0.00000000000E+00  0.36271156280E+02  0.41422296869E+02  0.20005246811E+02 0.  0.
        -11    1    3    3    0    0 -0.86965904750E+01  0.49416454374E+01  0.18044632817E+02  0.20631512773E+02  0.51100000000E-03 0.  1.
         11    1    3    3    0    0  0.86965904750E+01 -0.49416454374E+01  0.18226523463E+02  0.20790784096E+02  0.51100000000E-03 0. -1.
<mgrwt>
<rscale>  0 0.20005247E+02</rscale>
<asrwt>0</asrwt>
<pdfrwt beam="2">  1        4 0.39624158E-03 0.20005247E+02</pdfrwt>
<pdfrwt beam="1">  1       -4 0.59764196E-02 0.20005247E+02</pdfrwt>
<totfact> 0.11890608E+06</totfact>
</mgrwt>
</event>
<event>
 5    1  0.1154861E-006  0.2000046E+02  0.7818608E-02  0.1745319E+00
          4   -1    0    0  501    0  0.00000000000E+00  0.00000000000E+00  0.26530747623E+00  0.14445719286E+01  0.14200000000E+01 0. -1.
         -4   -1    0    0    0  501 -0.00000000000E+00 -0.00000000000E+00 -0.11578608011E+03  0.11579478721E+03  0.14200000000E+01 0.  1.
       1023    2    1    2    0    0  0.00000000000E+00  0.00000000000E+00 -0.11552077263E+03  0.11723935914E+03  0.20000460584E+02 0.  0.
        -11    1    3    3    0    0  0.98059270831E+01 -0.19607749738E+01 -0.58119883289E+02  0.58973906757E+02  0.51100000000E-03 0. -1.
         11    1    3    3    0    0 -0.98059270831E+01  0.19607749738E+01 -0.57400889340E+02  0.58265452386E+02  0.51100000000E-03 0.  1.
<mgrwt>
<rscale>  0 0.20000461E+02</rscale>
<asrwt>0</asrwt>
<pdfrwt beam="1">  1        4 0.13219905E-03 0.20000461E+02</pdfrwt>
<pdfrwt beam="2">  1       -4 0.17904613E-01 0.20000461E+02</pdfrwt>
<totfact> 0.93354703E+05</totfact>
</mgrwt>
</event>
<event>
 5    1  0.1154861E-006  0.2000611E+02  0.7818608E-02  0.1745207E+00
          4   -1    0    0  501    0  0.00000000000E+00  0.00000000000E+00  0.40968544688E+01  0.43359677742E+01  0.14200000000E+01 0.  1.
         -4   -1    0    0    0  501 -0.00000000000E+00 -0.00000000000E+00 -0.23470162447E+02  0.23513079877E+02  0.14200000000E+01 0. -1.
       1023    2    1    2    0    0  0.00000000000E+00  0.00000000000E+00 -0.19373307978E+02  0.27849047651E+02  0.20006108893E+02 0.  0.
        -11    1    3    3    0    0 -0.20848721752E+01 -0.97821855167E+01 -0.94743868242E+01  0.13776859273E+02  0.51100000000E-03 0.  1.
         11    1    3    3    0    0  0.20848721752E+01  0.97821855167E+01 -0.98989211539E+01  0.14072188378E+02  0.51100000000E-03 0. -1.
<mgrwt>
<rscale>  0 0.20006109E+02</rscale>
<asrwt>0</asrwt>
<pdfrwt beam="1">  1        4 0.65197999E-03 0.20006109E+02</pdfrwt>
<pdfrwt beam="2">  1       -4 0.36324888E-02 0.20006109E+02</pdfrwt>
<totfact> 0.12561844E+06</totfact>
</mgrwt>
</event>
<event>
 5    1  0.1154861E-006  0.2000060E+02  0.7818608E-02  0.1745316E+00
         -4   -1    0    0    0  501 -0.00000000000E+00  0.00000000000E+00  0.42715207467E+02  0.42738803785E+02  0.14200000000E+01 0.  1.
          4   -1    0    0  501    0  0.00000000000E+00 -0.00000000000E+00 -0.20993510076E+01  0.25344969231E+01  0.14200000000E+01 0. -1.
       1023    2    1    2    0    0  0.00000000000E+00  0.00000000000E+00  0.40615856460E+02  0.45273300708E+02  0.20000599017E+02 0.  0.
        -11    1    3    3    0    0  0.65257816958E+01 -0.75773225454E+01  0.20158697210E+02  0.22502771322E+02  0.51100000000E-03 0.  1.
         11    1    3    3    0    0 -0.65257816958E+01  0.75773225454E+01  0.20457159250E+02  0.22770529386E+02  0.51100000000E-03 0. -1.
<mgrwt>
<rscale>  0 0.20000599E+02</rscale>
<asrwt>0</asrwt>
<pdfrwt beam="2">  1        4 0.35826498E-03 0.20000599E+02</pdfrwt>
<pdfrwt beam="1">  1       -4 0.66068575E-02 0.20000599E+02</pdfrwt>
<totfact> 0.11723030E+06</totfact>
</mgrwt>
</event>
<event>
 5    1  0.1187145E-006  0.2000126E+02  0.7818608E-02  0.1745303E+00
         -4   -1    0    0    0  501 -0.00000000000E+00  0.00000000000E+00  0.23298106794E+02  0.23341340582E+02  0.14200000000E+01 0. -1.
          4   -1    0    0  501    0  0.00000000000E+00 -0.00000000000E+00 -0.41266722313E+01  0.43641521175E+01  0.14200000000E+01 0.  1.
       1023    2    1    2    0    0  0.00000000000E+00  0.00000000000E+00  0.19171434563E+02  0.27705492700E+02  0.20001260524E+02 0.  0.
        -11    1    3    3    0    0  0.75838317556E+01 -0.65190180495E+01  0.95545906264E+01  0.13831207566E+02  0.51100000000E-03 0. -1.
         11    1    3    3    0    0 -0.75838317556E+01  0.65190180495E+01  0.96168439363E+01  0.13874285134E+02  0.51100000000E-03 0.  1.
<mgrwt>
<rscale>  0 0.20001261E+02</rscale>
<asrwt>0</asrwt>
<pdfrwt beam="2">  1        4 0.65646601E-03 0.20001261E+02</pdfrwt>
<pdfrwt beam="1">  1       -4 0.36059175E-02 0.20001261E+02</pdfrwt>
<totfact> 0.12575753E+06</totfact>
</mgrwt>
</event>
<event>
 5    1  0.1154861E-006  0.2000280E+02  0.7818608E-02  0.1745272E+00
         -4   -1    0    0    0  501 -0.00000000000E+00  0.00000000000E+00  0.78319775568E+00  0.16216654169E+01  0.14200000000E+01 0.  1.
          4   -1    0    0  501    0  0.00000000000E+00 -0.00000000000E+00 -0.82341381956E+02  0.82353625193E+02  0.14200000000E+01 0. -1.
       1023    2    1    2    0    0  0.00000000000E+00  0.00000000000E+00 -0.81558184201E+02  0.83975290610E+02  0.20002800378E+02 0.  0.
        -11    1    3    3    0    0 -0.51793760170E+01 -0.85541929185E+01 -0.40078448385E+02  0.41307168598E+02  0.51100000000E-03 0. -1.
         11    1    3    3    0    0  0.51793760170E+01  0.85541929185E+01 -0.41479735816E+02  0.42668122012E+02  0.51100000000E-03 0.  1.
<mgrwt>
<rscale>  0 0.20002800E+02</rscale>
<asrwt>0</asrwt>
<pdfrwt beam="2">  1        4 0.12733340E-01 0.20002800E+02</pdfrwt>
<pdfrwt beam="1">  1       -4 0.18593133E-03 0.20002800E+02</pdfrwt>
<totfact> 0.10280231E+06</totfact>
</mgrwt>
</event>
<event>
 5    1  0.1181235E-006  0.2000082E+02  0.7818608E-02  0.1745312E+00
         -4   -1    0    0    0  501 -0.00000000000E+00  0.00000000000E+00  0.10562065370E+02  0.10657092703E+02  0.14200000000E+01 0. -1.
          4   -1    0    0  501    0  0.00000000000E+00 -0.00000000000E+00 -0.92769277594E+01  0.93849767529E+01  0.14200000000E+01 0.  1.
       1023    2    1    2    0    0  0.00000000000E+00  0.00000000000E+00  0.12851376111E+01  0.20042069456E+02  0.20000824218E+02 0.  0.
        -11    1    3    3    0    0 -0.88527968914E+01 -0.46512975295E+01  0.68340311129E+00  0.10023653106E+02  0.51100000000E-03 0.  1.
         11    1    3    3    0    0  0.88527968914E+01  0.46512975295E+01  0.60173449978E+00  0.10018416351E+02  0.51100000000E-03 0. -1.
<mgrwt>
<rscale>  0 0.20000824E+02</rscale>
<asrwt>0</asrwt>
<pdfrwt beam="2">  1        4 0.14428409E-02 0.20000824E+02</pdfrwt>
<pdfrwt beam="1">  1       -4 0.16405544E-02 0.20000824E+02</pdfrwt>
<totfact> 0.13010453E+06</totfact>
</mgrwt>
</event>
<event>
 5    1  0.1154861E-006  0.2000124E+02  0.7818608E-02  0.1745303E+00
         -4   -1    0    0    0  501 -0.00000000000E+00  0.00000000000E+00  0.10758877538E+03  0.10759814584E+03  0.14200000000E+01 0. -1.
          4   -1    0    0  501    0  0.00000000000E+00 -0.00000000000E+00 -0.37229760710E+00  0.14679937017E+01  0.14200000000E+01 0.  1.
       1023    2    1    2    0    0  0.00000000000E+00  0.00000000000E+00  0.10721647778E+03  0.10906613954E+03  0.20001242163E+02 0.  0.
        -11    1    3    3    0    0  0.84367269896E+01 -0.53689830574E+01  0.54098411595E+02  0.55014929598E+02  0.51100000000E-03 0. -1.
         11    1    3    3    0    0 -0.84367269896E+01  0.53689830574E+01  0.53118066182E+02  0.54051209945E+02  0.51100000000E-03 0.  1.
<mgrwt>
<rscale>  0 0.20001242E+02</rscale>
<asrwt>0</asrwt>
<pdfrwt beam="2">  1        4 0.14228166E-03 0.20001242E+02</pdfrwt>
<pdfrwt beam="1">  1       -4 0.16637126E-01 0.20001242E+02</pdfrwt>
<totfact> 0.95491675E+05</totfact>
</mgrwt>
</event>
<event>
 5    1  0.1154861E-006  0.2001081E+02  0.7818608E-02  0.1745113E+00
         -4   -1    0    0    0  501 -0.00000000000E+00  0.00000000000E+00  0.42678434246E+01  0.44978758872E+01  0.14200000000E+01 0. -1.
          4   -1    0    0  501    0  0.00000000000E+00 -0.00000000000E+00 -0.22587913332E+02  0.22632503810E+02  0.14200000000E+01 0.  1.
       1023    2    1    2    0    0  0.00000000000E+00  0.00000000000E+00 -0.18320069908E+02  0.27130379697E+02  0.20010810606E+02 0.  0.
        -11    1    3    3    0    0 -0.54839277597E+01 -0.83676182661E+01 -0.89799862892E+01  0.13443610123E+02  0.51100000000E-03 0. -1.
         11    1    3    3    0    0  0.54839277597E+01  0.83676182661E+01 -0.93400836187E+01  0.13686769575E+02  0.51100000000E-03 0.  1.
<mgrwt>
<rscale>  0 0.20010811E+02</rscale>
<asrwt>0</asrwt>
<pdfrwt beam="2">  1        4 0.34961884E-02 0.20010811E+02</pdfrwt>
<pdfrwt beam="1">  1       -4 0.67771615E-03 0.20010811E+02</pdfrwt>
<totfact> 0.12594567E+06</totfact>
</mgrwt>
</event>
<event>
 5    1  0.1154861E-006  0.2000115E+02  0.7818608E-02  0.1745305E+00
         -4   -1    0    0    0  501 -0.00000000000E+00  0.00000000000E+00  0.74607684620E+02  0.74621196749E+02  0.14200000000E+01 0. -1.
          4   -1    0    0  501    0  0.00000000000E+00 -0.00000000000E+00 -0.94690278046E+00  0.17067585874E+01  0.14200000000E+01 0.  1.
       1023    2    1    2    0    0  0.00000000000E+00  0.00000000000E+00  0.73660781839E+02  0.76327955337E+02  0.20001149585E+02 0.  0.
        -11    1    3    3    0    0  0.95522853200E+01 -0.29603990595E+01  0.36688703572E+02  0.38027241387E+02  0.51100000000E-03 0. -1.
         11    1    3    3    0    0 -0.95522853200E+01  0.29603990595E+01  0.36972078267E+02  0.38300713950E+02  0.51100000000E-03 0.  1.
<mgrwt>
<rscale>  0 0.20001150E+02</rscale>
<asrwt>0</asrwt>
<pdfrwt beam="2">  1        4 0.20516716E-03 0.20001150E+02</pdfrwt>
<pdfrwt beam="1">  1       -4 0.11537597E-01 0.20001150E+02</pdfrwt>
<totfact> 0.10531644E+06</totfact>
</mgrwt>
</event>
<event>
 5    1  0.1210660E-006  0.2000113E+02  0.7818608E-02  0.1745306E+00
         -4   -1    0    0    0  501 -0.00000000000E+00  0.00000000000E+00  0.98201326695E+01  0.99222681705E+01  0.14200000000E+01 0.  1.
          4   -1    0    0  501    0  0.00000000000E+00 -0.00000000000E+00 -0.99789711728E+01  0.10079497292E+02  0.14200000000E+01 0. -1.
       1023    2    1    2    0    0  0.00000000000E+00  0.00000000000E+00 -0.15883850327E+00  0.20001765463E+02  0.20001134767E+02 0.  0.
        -11    1    3    3    0    0 -0.76362398088E+01  0.64571628848E+01 -0.14326568836E-01  0.10000365816E+02  0.51100000000E-03 0. -1.
         11    1    3    3    0    0  0.76362398088E+01 -0.64571628848E+01 -0.14451193443E+00  0.10001399647E+02  0.51100000000E-03 0.  1.
<mgrwt>
<rscale>  0 0.20001135E+02</rscale>
<asrwt>0</asrwt>
<pdfrwt beam="2">  1        4 0.15508157E-02 0.20001135E+02</pdfrwt>
<pdfrwt beam="1">  1       -4 0.15263790E-02 0.20001135E+02</pdfrwt>
<totfact> 0.13012432E+06</totfact>
</mgrwt>
</event>
<event>
 5    1  0.1154861E-006  0.2000483E+02  0.7818608E-02  0.1745232E+00
         -4   -1    0    0    0  501 -0.00000000000E+00  0.00000000000E+00  0.37175581998E+02  0.37202692065E+02  0.14200000000E+01 0.  1.
          4   -1    0    0  501    0  0.00000000000E+00 -0.00000000000E+00 -0.24737854596E+01  0.28523699796E+01  0.14200000000E+01 0. -1.
       1023    2    1    2    0    0  0.00000000000E+00  0.00000000000E+00  0.34701796538E+02  0.40055062044E+02  0.20004832226E+02 0.  0.
        -11    1    3    3    0    0 -0.30061878763E+01 -0.95390736017E+01  0.17088019953E+02  0.19799785779E+02  0.51100000000E-03 0. -1.
         11    1    3    3    0    0  0.30061878763E+01  0.95390736017E+01  0.17613776585E+02  0.20255276265E+02  0.51100000000E-03 0.  1.
<mgrwt>
<rscale>  0 0.20004832E+02</rscale>
<asrwt>0</asrwt>
<pdfrwt beam="2">  1        4 0.41178964E-03 0.20004832E+02</pdfrwt>
<pdfrwt beam="1">  1       -4 0.57505278E-02 0.20004832E+02</pdfrwt>
<totfact> 0.11954200E+06</totfact>
</mgrwt>
</event>
<event>
 5    1  0.1154861E-006  0.2000135E+02  0.7818608E-02  0.1745301E+00
         -4   -1    0    0    0  501 -0.00000000000E+00  0.00000000000E+00  0.45196996144E+02  0.45219297434E+02  0.14200000000E+01 0. -1.
          4   -1    0    0  501    0  0.00000000000E+00 -0.00000000000E+00 -0.19597414504E+01  0.24201211855E+01  0.14200000000E+01 0.  1.
       1023    2    1    2    0    0  0.00000000000E+00  0.00000000000E+00  0.43237254694E+02  0.47639418620E+02  0.20001350279E+02 0.  0.
        -11    1    3    3    0    0 -0.99082537931E+01 -0.13558311860E+01  0.21717738989E+02  0.23909662451E+02  0.51100000000E-03 0.  1.
         11    1    3    3    0    0  0.99082537931E+01  0.13558311860E+01  0.21519515704E+02  0.23729756169E+02  0.51100000000E-03 0. -1.
<mgrwt>
<rscale>  0 0.20001350E+02</rscale>
<asrwt>0</asrwt>
<pdfrwt beam="2">  1        4 0.33862799E-03 0.20001350E+02</pdfrwt>
<pdfrwt beam="1">  1       -4 0.69905133E-02 0.20001350E+02</pdfrwt>
<totfact> 0.11619071E+06</totfact>
</mgrwt>
</event>
<event>
 5    1  0.1154861E-006  0.2000026E+02  0.7818608E-02  0.1745323E+00
         -4   -1    0    0    0  501 -0.00000000000E+00  0.00000000000E+00  0.26981749663E+01  0.30490241305E+01  0.14200000000E+01 0.  1.
          4   -1    0    0  501    0  0.00000000000E+00 -0.00000000000E+00 -0.34434097604E+02  0.34463364284E+02  0.14200000000E+01 0. -1.
       1023    2    1    2    0    0  0.00000000000E+00  0.00000000000E+00 -0.31735922638E+02  0.37512388415E+02  0.20000262471E+02 0.  0.
        -11    1    3    3    0    0 -0.81277964624E+01 -0.58258933800E+01 -0.15910544381E+02  0.18792219980E+02  0.51100000000E-03 0.  1.
         11    1    3    3    0    0  0.81277964624E+01  0.58258933800E+01 -0.15825378257E+02  0.18720168435E+02  0.51100000000E-03 0. -1.
<mgrwt>
<rscale>  0 0.20000262E+02</rscale>
<asrwt>0</asrwt>
<pdfrwt beam="2">  1        4 0.53267929E-02 0.20000262E+02</pdfrwt>
<pdfrwt beam="1">  1       -4 0.44434355E-03 0.20000262E+02</pdfrwt>
<totfact> 0.12079684E+06</totfact>
</mgrwt>
</event>
<event>
 5    1  0.1170544E-006  0.2000074E+02  0.7818608E-02  0.1745313E+00
          4   -1    0    0  501    0  0.00000000000E+00  0.00000000000E+00  0.47089849326E+01  0.49184285189E+01  0.14200000000E+01 0. -1.
         -4   -1    0    0    0  501 -0.00000000000E+00 -0.00000000000E+00 -0.20541069568E+02  0.20590093224E+02  0.14200000000E+01 0.  1.
       1023    2    1    2    0    0  0.00000000000E+00  0.00000000000E+00 -0.15832084635E+02  0.25508521743E+02  0.20000744427E+02 0.  0.
        -11    1    3    3    0    0  0.42538561222E+01  0.90504892302E+01 -0.78800384020E+01  0.12731914730E+02  0.51100000000E-03 0. -1.
         11    1    3    3    0    0 -0.42538561222E+01 -0.90504892302E+01 -0.79520462330E+01  0.12776607013E+02  0.51100000000E-03 0.  1.
<mgrwt>
<rscale>  0 0.20000744E+02</rscale>
<asrwt>0</asrwt>
<pdfrwt beam="1">  1        4 0.74434133E-03 0.20000744E+02</pdfrwt>
<pdfrwt beam="2">  1       -4 0.31800466E-02 0.20000744E+02</pdfrwt>
<totfact> 0.12696352E+06</totfact>
</mgrwt>
</event>
<event>
 5    1  0.1154861E-006  0.2000094E+02  0.7818608E-02  0.1745309E+00
          4   -1    0    0  501    0  0.00000000000E+00  0.00000000000E+00  0.71273271670E+02  0.71287415822E+02  0.14200000000E+01 0. -1.
         -4   -1    0    0    0  501 -0.00000000000E+00 -0.00000000000E+00 -0.10259037111E+01  0.17518214591E+01  0.14200000000E+01 0.  1.
       1023    2    1    2    0    0  0.00000000000E+00  0.00000000000E+00  0.70247367959E+02  0.73039237281E+02  0.20000936914E+02 0.  0.
        -11    1    3    3    0    0  0.55166555405E+01 -0.83409102158E+01  0.35384410405E+02  0.36770378997E+02  0.51100000000E-03 0.  1.
         11    1    3    3    0    0 -0.55166555405E+01  0.83409102158E+01  0.34862957554E+02  0.36268858285E+02  0.51100000000E-03 0. -1.
<mgrwt>
<rscale>  0 0.20000937E+02</rscale>
<asrwt>0</asrwt>
<pdfrwt beam="1">  1        4 0.11022046E-01 0.20000937E+02</pdfrwt>
<pdfrwt beam="2">  1       -4 0.21475919E-03 0.20000937E+02</pdfrwt>
<totfact> 0.10643794E+06</totfact>
</mgrwt>
</event>
<event>
 5    1  0.1167016E-006  0.2000073E+02  0.7818608E-02  0.1745314E+00
          4   -1    0    0  501    0  0.00000000000E+00  0.00000000000E+00  0.41180961414E+02  0.41205436328E+02  0.14200000000E+01 0.  1.
         -4   -1    0    0    0  501 -0.00000000000E+00 -0.00000000000E+00 -0.21934649407E+01  0.26129845859E+01  0.14200000000E+01 0. -1.
       1023    2    1    2    0    0  0.00000000000E+00  0.00000000000E+00  0.38987496474E+02  0.43818420914E+02  0.20000728240E+02 0.  0.
        -11    1    3    3    0    0  0.92250176795E+01  0.38600157428E+01  0.19671861768E+02  0.22067687201E+02  0.51100000000E-03 0. -1.
         11    1    3    3    0    0 -0.92250176795E+01 -0.38600157428E+01  0.19315634706E+02  0.21750733713E+02  0.51100000000E-03 0.  1.
<mgrwt>
<rscale>  0 0.20000728E+02</rscale>
<asrwt>0</asrwt>
<pdfrwt beam="1">  1        4 0.63696852E-02 0.20000728E+02</pdfrwt>
<pdfrwt beam="2">  1       -4 0.37160962E-03 0.20000728E+02</pdfrwt>
<totfact> 0.11787508E+06</totfact>
</mgrwt>
</event>
<event>
 5    1  0.1154861E-006  0.2000140E+02  0.7818608E-02  0.1745300E+00
          4   -1    0    0  501    0  0.00000000000E+00  0.00000000000E+00  0.85803324689E+02  0.85815074012E+02  0.14200000000E+01 0. -1.
         -4   -1    0    0    0  501 -0.00000000000E+00 -0.00000000000E+00 -0.71684108499E+00  0.15906794589E+01  0.14200000000E+01 0.  1.
       1023    2    1    2    0    0  0.00000000000E+00  0.00000000000E+00  0.85086483604E+02  0.87405753471E+02  0.20001401144E+02 0.  0.
        -11    1    3    3    0    0 -0.76017304901E+01 -0.64982505910E+01  0.42451110593E+02  0.43613190184E+02  0.51100000000E-03 0.  1.
         11    1    3    3    0    0  0.76017304901E+01  0.64982505910E+01  0.42635373011E+02  0.43792563287E+02  0.51100000000E-03 0. -1.
<mgrwt>
<rscale>  0 0.20001401E+02</rscale>
<asrwt>0</asrwt>
<pdfrwt beam="1">  1        4 0.13268635E-01 0.20001401E+02</pdfrwt>
<pdfrwt beam="2">  1       -4 0.17840535E-03 0.20001401E+02</pdfrwt>
<totfact> 0.10174019E+06</totfact>
</mgrwt>
</event>
<event>
 5    1  0.1173599E-006  0.2000369E+02  0.7818608E-02  0.1745255E+00
         -4   -1    0    0    0  501 -0.00000000000E+00  0.00000000000E+00  0.19715999433E+02  0.19767069424E+02  0.14200000000E+01 0. -1.
          4   -1    0    0  501    0  0.00000000000E+00 -0.00000000000E+00 -0.49156352001E+01  0.51166267619E+01  0.14200000000E+01 0.  1.
       1023    2    1    2    0    0  0.00000000000E+00  0.00000000000E+00  0.14800364233E+02  0.24883696186E+02  0.20003688522E+02 0.  0.
        -11    1    3    3    0    0  0.44673044273E+01  0.89468785903E+01  0.76276695601E+01  0.12577153435E+02  0.51100000000E-03 0.  1.
         11    1    3    3    0    0 -0.44673044273E+01 -0.89468785903E+01  0.71726946726E+01  0.12306542751E+02  0.51100000000E-03 0. -1.
<mgrwt>
<rscale>  0 0.20003689E+02</rscale>
<asrwt>0</asrwt>
<pdfrwt beam="2">  1        4 0.77564092E-03 0.20003689E+02</pdfrwt>
<pdfrwt beam="1">  1       -4 0.30526200E-02 0.20003689E+02</pdfrwt>
<totfact> 0.12727312E+06</totfact>
</mgrwt>
</event>
<event>
 5    1  0.1154861E-006  0.2000028E+02  0.7818608E-02  0.1745322E+00
          4   -1    0    0  501    0  0.00000000000E+00  0.00000000000E+00  0.17035198738E+01  0.22177420861E+01  0.14200000000E+01 0.  1.
         -4   -1    0    0    0  501 -0.00000000000E+00 -0.00000000000E+00 -0.50479925192E+02  0.50499893538E+02  0.14200000000E+01 0. -1.
       1023    2    1    2    0    0  0.00000000000E+00  0.00000000000E+00 -0.48776405318E+02  0.52717635624E+02  0.20000284750E+02 0.  0.
        -11    1    3    3    0    0  0.27944396841E+01 -0.96016345376E+01 -0.24521783367E+02  0.26482411875E+02  0.51100000000E-03 0. -1.
         11    1    3    3    0    0 -0.27944396841E+01  0.96016345376E+01 -0.24254621951E+02  0.26235223749E+02  0.51100000000E-03 0.  1.
<mgrwt>
<rscale>  0 0.20000285E+02</rscale>
<asrwt>0</asrwt>
<pdfrwt beam="1">  1        4 0.30317160E-03 0.20000285E+02</pdfrwt>
<pdfrwt beam="2">  1       -4 0.78072329E-02 0.20000285E+02</pdfrwt>
<totfact> 0.11407090E+06</totfact>
</mgrwt>
</event>
<event>
 5    1  0.1164514E-006  0.2000066E+02  0.7818608E-02  0.1745315E+00
          4   -1    0    0  501    0  0.00000000000E+00  0.00000000000E+00  0.20989048680E+02  0.21037028414E+02  0.14200000000E+01 0. -1.
         -4   -1    0    0    0  501 -0.00000000000E+00 -0.00000000000E+00 -0.46041629971E+01  0.48181653047E+01  0.14200000000E+01 0.  1.
       1023    2    1    2    0    0  0.00000000000E+00  0.00000000000E+00  0.16384885683E+02  0.25855193719E+02  0.20000664074E+02 0.  0.
        -11    1    3    3    0    0 -0.10937969098E+01 -0.99402587671E+01  0.81423002781E+01  0.12895820645E+02  0.51100000000E-03 0. -1.
         11    1    3    3    0    0  0.10937969098E+01  0.99402587671E+01  0.82425854046E+01  0.12959373073E+02  0.51100000000E-03 0.  1.
<mgrwt>
<rscale>  0 0.20000664E+02</rscale>
<asrwt>0</asrwt>
<pdfrwt beam="1">  1        4 0.32492369E-02 0.20000664E+02</pdfrwt>
<pdfrwt beam="2">  1       -4 0.72848523E-03 0.20000664E+02</pdfrwt>
<totfact> 0.12677290E+06</totfact>
</mgrwt>
</event>
<event>
 5    1  0.1154861E-006  0.2000193E+02  0.7818608E-02  0.1745290E+00
         -4   -1    0    0    0  501 -0.00000000000E+00  0.00000000000E+00  0.11155870094E+03  0.11156773796E+03  0.14200000000E+01 0.  1.
          4   -1    0    0  501    0  0.00000000000E+00 -0.00000000000E+00 -0.31944365313E+00  0.14554876322E+01  0.14200000000E+01 0. -1.
       1023    2    1    2    0    0  0.00000000000E+00  0.00000000000E+00  0.11123925728E+03  0.11302322560E+03  0.20001928993E+02 0.  0.
        -11    1    3    3    0    0  0.63090710904E+01 -0.77590556594E+01  0.55001464362E+02  0.55903205677E+02  0.51100000000E-03 0. -1.
         11    1    3    3    0    0 -0.63090710904E+01  0.77590556594E+01  0.56237792920E+02  0.57120019919E+02  0.51100000000E-03 0.  1.
<mgrwt>
<rscale>  0 0.20001929E+02</rscale>
<asrwt>0</asrwt>
<pdfrwt beam="2">  1        4 0.13722828E-03 0.20001929E+02</pdfrwt>
<pdfrwt beam="1">  1       -4 0.17250966E-01 0.20001929E+02</pdfrwt>
<totfact> 0.94433736E+05</totfact>
</mgrwt>
</event>
<event>
 5    1  0.1183200E-006  0.2000088E+02  0.7818608E-02  0.1745311E+00
          4   -1    0    0  501    0  0.00000000000E+00  0.00000000000E+00  0.90396801788E+01  0.91505310084E+01  0.14200000000E+01 0.  1.
         -4   -1    0    0    0  501 -0.00000000000E+00 -0.00000000000E+00 -0.10838446289E+02  0.10931071217E+02  0.14200000000E+01 0. -1.
       1023    2    1    2    0    0  0.00000000000E+00  0.00000000000E+00 -0.17987661102E+01  0.20081602226E+02  0.20000879691E+02 0.  0.
        -11    1    3    3    0    0 -0.95086060741E+01  0.30963211716E+01 -0.98920122027E+00  0.10048846381E+02  0.51100000000E-03 0.  1.
         11    1    3    3    0    0  0.95086060741E+01 -0.30963211716E+01 -0.80956488989E+00  0.10032755845E+02  0.51100000000E-03 0. -1.
<mgrwt>
<rscale>  0 0.20000880E+02</rscale>
<asrwt>0</asrwt>
<pdfrwt beam="1">  1        4 0.14063720E-02 0.20000880E+02</pdfrwt>
<pdfrwt beam="2">  1       -4 0.16831053E-02 0.20000880E+02</pdfrwt>
<totfact> 0.13008035E+06</totfact>
</mgrwt>
</event>
<event>
 5    1  0.1154861E-006  0.2000139E+02  0.7818608E-02  0.1745301E+00
         -4   -1    0    0    0  501 -0.00000000000E+00  0.00000000000E+00  0.14240572703E+01  0.20110542283E+01  0.14200000000E+01 0.  1.
          4   -1    0    0  501    0  0.00000000000E+00 -0.00000000000E+00 -0.57633103507E+02  0.57650594272E+02  0.14200000000E+01 0. -1.
       1023    2    1    2    0    0  0.00000000000E+00  0.00000000000E+00 -0.56209046237E+02  0.59661648500E+02  0.20001385524E+02 0.  0.
        -11    1    3    3    0    0 -0.30479688184E+01 -0.95245514639E+01 -0.28347969418E+02  0.30060182383E+02  0.51100000000E-03 0.  1.
         11    1    3    3    0    0  0.30479688184E+01  0.95245514639E+01 -0.27861076819E+02  0.29601466117E+02  0.51100000000E-03 0. -1.
<mgrwt>
<rscale>  0 0.20001386E+02</rscale>
<asrwt>0</asrwt>
<pdfrwt beam="2">  1        4 0.89131288E-02 0.20001386E+02</pdfrwt>
<pdfrwt beam="1">  1       -4 0.26558484E-03 0.20001386E+02</pdfrwt>
<totfact> 0.11130314E+06</totfact>
</mgrwt>
</event>
<event>
 5    1  0.1161788E-006  0.2000096E+02  0.7818608E-02  0.1745309E+00
          4   -1    0    0  501    0  0.00000000000E+00  0.00000000000E+00  0.35248129908E+01  0.38000929752E+01  0.14200000000E+01 0.  1.
         -4   -1    0    0    0  501 -0.00000000000E+00 -0.00000000000E+00 -0.27012088641E+02  0.27049386920E+02  0.14200000000E+01 0. -1.
       1023    2    1    2    0    0  0.00000000000E+00  0.00000000000E+00 -0.23487275651E+02  0.30849479895E+02  0.20000957285E+02 0.  0.
        -11    1    3    3    0    0 -0.82127516788E+01 -0.57057136509E+01 -0.11853942837E+02  0.15508720755E+02  0.51100000000E-03 0. -1.
         11    1    3    3    0    0  0.82127516788E+01  0.57057136509E+01 -0.11633332813E+02  0.15340759141E+02  0.51100000000E-03 0.  1.
<mgrwt>
<rscale>  0 0.20000957E+02</rscale>
<asrwt>0</asrwt>
<pdfrwt beam="1">  1        4 0.56632342E-03 0.20000957E+02</pdfrwt>
<pdfrwt beam="2">  1       -4 0.41797503E-02 0.20000957E+02</pdfrwt>
<totfact> 0.12410400E+06</totfact>
</mgrwt>
</event>
<event>
 5    1  0.1154861E-006  0.2000026E+02  0.7818608E-02  0.1745323E+00
          4   -1    0    0  501    0  0.00000000000E+00  0.00000000000E+00  0.67544140336E+02  0.67559065223E+02  0.14200000000E+01 0. -1.
         -4   -1    0    0    0  501 -0.00000000000E+00 -0.00000000000E+00 -0.11214290848E+01  0.18094206786E+01  0.14200000000E+01 0.  1.
       1023    2    1    2    0    0  0.00000000000E+00  0.00000000000E+00  0.66422711251E+02  0.69368485901E+02  0.20000256655E+02 0.  0.
        -11    1    3    3    0    0  0.93403389031E+01 -0.35718817846E+01  0.33377548335E+02  0.34843378186E+02  0.51100000000E-03 0.  1.
         11    1    3    3    0    0 -0.93403389031E+01  0.35718817846E+01  0.33045162916E+02  0.34525107715E+02  0.51100000000E-03 0. -1.
<mgrwt>
<rscale>  0 0.20000257E+02</rscale>
<asrwt>0</asrwt>
<pdfrwt beam="1">  1        4 0.10445476E-01 0.20000257E+02</pdfrwt>
<pdfrwt beam="2">  1       -4 0.22659806E-03 0.20000257E+02</pdfrwt>
<totfact> 0.10772874E+06</totfact>
</mgrwt>
</event>
<event>
 5    1  0.1154861E-006  0.2000047E+02  0.7818608E-02  0.1745319E+00
         -4   -1    0    0    0  501 -0.00000000000E+00  0.00000000000E+00  0.13044737129E+02  0.13121797390E+02  0.14200000000E+01 0.  1.
          4   -1    0    0  501    0  0.00000000000E+00 -0.00000000000E+00 -0.74998293014E+01  0.76330753665E+01  0.14200000000E+01 0. -1.
       1023    2    1    2    0    0  0.00000000000E+00  0.00000000000E+00  0.55449078272E+01  0.20754872757E+02  0.20000468503E+02 0.  0.
        -11    1    3    3    0    0  0.42403375134E+01  0.90567192999E+01  0.27645427104E+01  0.10375322808E+02  0.51100000000E-03 0.  1.
         11    1    3    3    0    0 -0.42403375134E+01 -0.90567192999E+01  0.27803651168E+01  0.10379549949E+02  0.51100000000E-03 0. -1.
<mgrwt>
<rscale>  0 0.20000469E+02</rscale>
<asrwt>0</asrwt>
<pdfrwt beam="2">  1        4 0.11699973E-02 0.20000469E+02</pdfrwt>
<pdfrwt beam="1">  1       -4 0.20230600E-02 0.20000469E+02</pdfrwt>
<totfact> 0.12968632E+06</totfact>
</mgrwt>
</event>
<event>
 5    1  0.1154861E-006  0.2000394E+02  0.7818608E-02  0.1745250E+00
          4   -1    0    0  501    0  0.00000000000E+00  0.00000000000E+00  0.18869471897E+01  0.23615608602E+01  0.14200000000E+01 0.  1.
         -4   -1    0    0    0  501 -0.00000000000E+00 -0.00000000000E+00 -0.46607264380E+02  0.46628891183E+02  0.14200000000E+01 0. -1.
       1023    2    1    2    0    0  0.00000000000E+00  0.00000000000E+00 -0.44720317190E+02  0.48990452044E+02  0.20003940158E+02 0.  0.
        -11    1    3    3    0    0  0.91129923556E+01 -0.41222294264E+01 -0.22360840851E+02  0.24495848810E+02  0.51100000000E-03 0. -1.
         11    1    3    3    0    0 -0.91129923556E+01  0.41222294264E+01 -0.22359476340E+02  0.24494603234E+02  0.51100000000E-03 0.  1.
<mgrwt>
<rscale>  0 0.20003940E+02</rscale>
<asrwt>0</asrwt>
<pdfrwt beam="1">  1        4 0.32847195E-03 0.20003940E+02</pdfrwt>
<pdfrwt beam="2">  1       -4 0.72085199E-02 0.20003940E+02</pdfrwt>
<totfact> 0.11558289E+06</totfact>
</mgrwt>
</event>
<event>
 5    1  0.1154861E-006  0.2000033E+02  0.7818608E-02  0.1745322E+00
         -4   -1    0    0    0  501 -0.00000000000E+00  0.00000000000E+00  0.18657529635E+02  0.18711488773E+02  0.14200000000E+01 0. -1.
          4   -1    0    0  501    0  0.00000000000E+00 -0.00000000000E+00 -0.52029599476E+01  0.53932543252E+01  0.14200000000E+01 0.  1.
       1023    2    1    2    0    0  0.00000000000E+00  0.00000000000E+00  0.13454569688E+02  0.24104743098E+02  0.20000329856E+02 0.  0.
        -11    1    3    3    0    0  0.84793513759E+00  0.99641425472E+01  0.67428888168E+01  0.12061081235E+02  0.51100000000E-03 0. -1.
         11    1    3    3    0    0 -0.84793513759E+00 -0.99641425472E+01  0.67116808710E+01  0.12043661863E+02  0.51100000000E-03 0.  1.
<mgrwt>
<rscale>  0 0.20000330E+02</rscale>
<asrwt>0</asrwt>
<pdfrwt beam="2">  1        4 0.81924410E-03 0.20000330E+02</pdfrwt>
<pdfrwt beam="1">  1       -4 0.28891779E-02 0.20000330E+02</pdfrwt>
<totfact> 0.12775426E+06</totfact>
</mgrwt>
</event>
<event>
 5    1  0.1154861E-006  0.2000007E+02  0.7818608E-02  0.1745327E+00
          4   -1    0    0  501    0  0.00000000000E+00  0.00000000000E+00  0.39946283740E+02  0.39971514665E+02  0.14200000000E+01 0. -1.
         -4   -1    0    0    0  501 -0.00000000000E+00 -0.00000000000E+00 -0.22738042650E+01  0.26807808258E+01  0.14200000000E+01 0.  1.
       1023    2    1    2    0    0  0.00000000000E+00  0.00000000000E+00  0.37672479475E+02  0.42652295491E+02  0.20000065021E+02 0.  0.
        -11    1    3    3    0    0  0.87287800257E+01  0.48794514496E+01  0.18839787508E+02  0.21329281300E+02  0.51100000000E-03 0. -1.
         11    1    3    3    0    0 -0.87287800257E+01 -0.48794514496E+01  0.18832691967E+02  0.21323014190E+02  0.51100000000E-03 0.  1.
<mgrwt>
<rscale>  0 0.20000065E+02</rscale>
<asrwt>0</asrwt>
<pdfrwt beam="1">  1        4 0.61788286E-02 0.20000065E+02</pdfrwt>
<pdfrwt beam="2">  1       -4 0.38306279E-03 0.20000065E+02</pdfrwt>
<totfact> 0.11840817E+06</totfact>
</mgrwt>
</event>
<event>
 4    1  0.1154861E-006  0.2052953E+02  0.7818608E-02  0.1734998E+00
          4   -1    0    0  501    0  0.00000000000E+00  0.00000000000E+00  0.42090873187E+02  0.42114819312E+02  0.14200000000E+01 0.  1.
         -4   -1    0    0    0  501 -0.00000000000E+00 -0.00000000000E+00 -0.22751846421E+01  0.26819517437E+01  0.14200000000E+01 0. -1.
        -11    1    1    2    0    0 -0.10021612182E+02  0.18208500351E+01  0.22682762553E+02  0.24864752621E+02  0.51100000000E-03 0.  1.
         11    1    1    2    0    0  0.10021612182E+02 -0.18208500351E+01  0.17132925992E+02  0.19932018435E+02  0.51100000000E-03 0. -1.
<mgrwt>
<rscale>  0 0.20529531E+02</rscale>
<asrwt>0</asrwt>
<pdfrwt beam="1">  1        4 0.65086508E-02 0.20529531E+02</pdfrwt>
<pdfrwt beam="2">  1       -4 0.38316019E-03 0.20529531E+02</pdfrwt>
<totfact> 0.11136980E+06</totfact>
</mgrwt>
</event>
<event>
 5    1  0.1154861E-006  0.2000027E+02  0.7818608E-02  0.1745323E+00
          4   -1    0    0  501    0  0.00000000000E+00  0.00000000000E+00  0.33794013944E+02  0.33823834473E+02  0.14200000000E+01 0. -1.
         -4   -1    0    0    0  501 -0.00000000000E+00 -0.00000000000E+00 -0.27558170052E+01  0.31001495716E+01  0.14200000000E+01 0.  1.
       1023    2    1    2    0    0  0.00000000000E+00  0.00000000000E+00  0.31038196939E+02  0.36923984044E+02  0.20000273211E+02 0.  0.
        -11    1    3    3    0    0  0.84939961920E+01  0.52777609298E+01  0.15518453595E+02  0.18461449943E+02  0.51100000000E-03 0.  1.
         11    1    3    3    0    0 -0.84939961920E+01 -0.52777609298E+01  0.15519743344E+02  0.18462534102E+02  0.51100000000E-03 0. -1.
<mgrwt>
<rscale>  0 0.20000273E+02</rscale>
<asrwt>0</asrwt>
<pdfrwt beam="1">  1        4 0.52278603E-02 0.20000273E+02</pdfrwt>
<pdfrwt beam="2">  1       -4 0.45275284E-03 0.20000273E+02</pdfrwt>
<totfact> 0.12107922E+06</totfact>
</mgrwt>
</event>
<event>
 5    1  0.1154861E-006  0.2000040E+02  0.7818608E-02  0.1745320E+00
          4   -1    0    0  501    0  0.00000000000E+00  0.00000000000E+00  0.37041037333E+02  0.37068245800E+02  0.14200000000E+01 0. -1.
         -4   -1    0    0    0  501 -0.00000000000E+00 -0.00000000000E+00 -0.24828538636E+01  0.28602383307E+01  0.14200000000E+01 0.  1.
       1023    2    1    2    0    0  0.00000000000E+00  0.00000000000E+00  0.34558183469E+02  0.39928484130E+02  0.20000395003E+02 0.  0.
        -11    1    3    3    0    0  0.89373035424E+01 -0.44864613396E+01  0.17249490796E+02  0.19938622394E+02  0.51100000000E-03 0. -1.
         11    1    3    3    0    0 -0.89373035424E+01  0.44864613396E+01  0.17308692673E+02  0.19989861737E+02  0.51100000000E-03 0.  1.
<mgrwt>
<rscale>  0 0.20000395E+02</rscale>
<asrwt>0</asrwt>
<pdfrwt beam="1">  1        4 0.57297429E-02 0.20000395E+02</pdfrwt>
<pdfrwt beam="2">  1       -4 0.41310010E-03 0.20000395E+02</pdfrwt>
<totfact> 0.11965461E+06</totfact>
</mgrwt>
</event>
<event>
 5    1  0.1170197E-006  0.2000059E+02  0.7818608E-02  0.1745316E+00
          4   -1    0    0  501    0  0.00000000000E+00  0.00000000000E+00  0.56363044988E+01  0.58124287870E+01  0.14200000000E+01 0. -1.
         -4   -1    0    0    0  501 -0.00000000000E+00 -0.00000000000E+00 -0.17264482680E+02  0.17322781595E+02  0.14200000000E+01 0.  1.
       1023    2    1    2    0    0  0.00000000000E+00  0.00000000000E+00 -0.11628178181E+02  0.23135210382E+02  0.20000585782E+02 0.  0.
        -11    1    3    3    0    0 -0.35528577495E+01 -0.93478437701E+01 -0.57798471459E+01  0.11550394566E+02  0.51100000000E-03 0.  1.
         11    1    3    3    0    0  0.35528577495E+01  0.93478437701E+01 -0.58483310349E+01  0.11584815816E+02  0.51100000000E-03 0. -1.
<mgrwt>
<rscale>  0 0.20000586E+02</rscale>
<asrwt>0</asrwt>
<pdfrwt beam="1">  1        4 0.88515633E-03 0.20000586E+02</pdfrwt>
<pdfrwt beam="2">  1       -4 0.26741068E-02 0.20000586E+02</pdfrwt>
<totfact> 0.12830080E+06</totfact>
</mgrwt>
</event>
<event>
 5    1  0.1154861E-006  0.2000460E+02  0.7818608E-02  0.1745237E+00
          4   -1    0    0  501    0  0.00000000000E+00  0.00000000000E+00  0.91645678549E+01  0.92739260277E+01  0.14200000000E+01 0.  1.
         -4   -1    0    0    0  501 -0.00000000000E+00 -0.00000000000E+00 -0.10695300697E+02  0.10789154601E+02  0.14200000000E+01 0. -1.
       1023    2    1    2    0    0  0.00000000000E+00  0.00000000000E+00 -0.15307328423E+01  0.20063080629E+02  0.20004601003E+02 0.  0.
        -11    1    3    3    0    0 -0.39424157138E+01 -0.91914038802E+01 -0.61841810381E+00  0.10020328745E+02  0.51100000000E-03 0.  1.
         11    1    3    3    0    0  0.39424157138E+01  0.91914038802E+01 -0.91231473854E+00  0.10042751883E+02  0.51100000000E-03 0. -1.
<mgrwt>
<rscale>  0 0.20004601E+02</rscale>
<asrwt>0</asrwt>
<pdfrwt beam="1">  1        4 0.14255652E-02 0.20004601E+02</pdfrwt>
<pdfrwt beam="2">  1       -4 0.16610626E-02 0.20004601E+02</pdfrwt>
<totfact> 0.13004192E+06</totfact>
</mgrwt>
</event>
<event>
 5    1  0.1154861E-006  0.2001029E+02  0.7818608E-02  0.1745124E+00
         -4   -1    0    0    0  501 -0.00000000000E+00  0.00000000000E+00  0.17878886001E+01  0.22831876065E+01  0.14200000000E+01 0.  1.
          4   -1    0    0  501    0  0.00000000000E+00 -0.00000000000E+00 -0.48670689504E+02  0.48691399824E+02  0.14200000000E+01 0. -1.
       1023    2    1    2    0    0  0.00000000000E+00  0.00000000000E+00 -0.46882800904E+02  0.50974587430E+02  0.20010285932E+02 0.  0.
        -11    1    3    3    0    0 -0.59211072421E+01 -0.80646750879E+01 -0.23272610786E+02  0.25332052982E+02  0.51100000000E-03 0.  1.
         11    1    3    3    0    0  0.59211072421E+01  0.80646750879E+01 -0.23610190118E+02  0.25642534448E+02  0.51100000000E-03 0. -1.
<mgrwt>
<rscale>  0 0.20010286E+02</rscale>
<asrwt>0</asrwt>
<pdfrwt beam="2">  1        4 0.75274905E-02 0.20010286E+02</pdfrwt>
<pdfrwt beam="1">  1       -4 0.31475285E-03 0.20010286E+02</pdfrwt>
<totfact> 0.11467525E+06</totfact>
</mgrwt>
</event>
<event>
 5    1  0.1154861E-006  0.2000014E+02  0.7818608E-02  0.1745325E+00
         -4   -1    0    0    0  501 -0.00000000000E+00  0.00000000000E+00  0.45795225987E+02  0.45817236093E+02  0.14200000000E+01 0.  1.
          4   -1    0    0  501    0  0.00000000000E+00 -0.00000000000E+00 -0.19278100738E+01  0.23943374200E+01  0.14200000000E+01 0. -1.
       1023    2    1    2    0    0  0.00000000000E+00  0.00000000000E+00  0.43867415913E+02  0.48211573513E+02  0.20000141042E+02 0.  0.
        -11    1    3    3    0    0  0.75465354732E+01 -0.65612564219E+01  0.22014621029E+02  0.24179409066E+02  0.51100000000E-03 0.  1.
         11    1    3    3    0    0 -0.75465354732E+01  0.65612564219E+01  0.21852794884E+02  0.24032164447E+02  0.51100000000E-03 0. -1.
<mgrwt>
<rscale>  0 0.20000141E+02</rscale>
<asrwt>0</asrwt>
<pdfrwt beam="2">  1        4 0.33416599E-03 0.20000141E+02</pdfrwt>
<pdfrwt beam="1">  1       -4 0.70829987E-02 0.20000141E+02</pdfrwt>
<totfact> 0.11595930E+06</totfact>
</mgrwt>
</event>
<event>
 5    1  0.1154861E-006  0.2000011E+02  0.7818608E-02  0.1745326E+00
         -4   -1    0    0    0  501 -0.00000000000E+00  0.00000000000E+00  0.20719750342E+01  0.25118679389E+01  0.14200000000E+01 0.  1.
          4   -1    0    0  501    0  0.00000000000E+00 -0.00000000000E+00 -0.43179301587E+02  0.43202644428E+02  0.14200000000E+01 0. -1.
       1023    2    1    2    0    0  0.00000000000E+00  0.00000000000E+00 -0.41107326553E+02  0.45714512367E+02  0.20000108615E+02 0.  0.
        -11    1    3    3    0    0 -0.57868522195E+01 -0.81555250929E+01 -0.20487506270E+02  0.22797766591E+02  0.51100000000E-03 0. -1.
         11    1    3    3    0    0  0.57868522195E+01  0.81555250929E+01 -0.20619820284E+02  0.22916745776E+02  0.51100000000E-03 0.  1.
<mgrwt>
<rscale>  0 0.20000109E+02</rscale>
<asrwt>0</asrwt>
<pdfrwt beam="2">  1        4 0.66786024E-02 0.20000109E+02</pdfrwt>
<pdfrwt beam="1">  1       -4 0.35439894E-03 0.20000109E+02</pdfrwt>
<totfact> 0.11704200E+06</totfact>
</mgrwt>
</event>
<event>
 4    1  0.1154861E-006  0.2002015E+02  0.7818608E-02  0.1744928E+00
          4   -1    0    0  501    0  0.00000000000E+00  0.00000000000E+00  0.34351031910E+02  0.34380369301E+02  0.14200000000E+01 0.  1.
         -4   -1    0    0    0  501 -0.00000000000E+00 -0.00000000000E+00 -0.27116815444E+01  0.30609829790E+01  0.14200000000E+01 0. -1.
        -11    1    1    2    0    0  0.94683564060E+01 -0.32405809381E+01  0.15399594569E+02  0.18365692227E+02  0.51100000000E-03 0.  1.
         11    1    1    2    0    0 -0.94683564060E+01  0.32405809381E+01  0.16239755797E+02  0.19075660053E+02  0.51100000000E-03 0. -1.
<mgrwt>
<rscale>  0 0.20020149E+02</rscale>
<asrwt>0</asrwt>
<pdfrwt beam="1">  1        4 0.53138998E-02 0.20020149E+02</pdfrwt>
<pdfrwt beam="2">  1       -4 0.44630787E-03 0.20020149E+02</pdfrwt>
<totfact> 0.12058777E+06</totfact>
</mgrwt>
</event>
<event>
 5    1  0.1157211E-006  0.2000222E+02  0.7818608E-02  0.1745284E+00
         -4   -1    0    0    0  501 -0.00000000000E+00  0.00000000000E+00  0.30581512030E+01  0.33717486236E+01  0.14200000000E+01 0. -1.
          4   -1    0    0  501    0  0.00000000000E+00 -0.00000000000E+00 -0.30780819478E+02  0.30813556233E+02  0.14200000000E+01 0.  1.
       1023    2    1    2    0    0  0.00000000000E+00  0.00000000000E+00 -0.27722668275E+02  0.34185304857E+02  0.20002218174E+02 0.  0.
        -11    1    3    3    0    0  0.28739505118E+00  0.99965870702E+01 -0.13710066558E+02  0.16969981563E+02  0.51100000000E-03 0. -1.
         11    1    3    3    0    0 -0.28739505118E+00 -0.99965870702E+01 -0.14012601717E+02  0.17215323294E+02  0.51100000000E-03 0.  1.
<mgrwt>
<rscale>  0 0.20002218E+02</rscale>
<asrwt>0</asrwt>
<pdfrwt beam="2">  1        4 0.47621516E-02 0.20002218E+02</pdfrwt>
<pdfrwt beam="1">  1       -4 0.49712591E-03 0.20002218E+02</pdfrwt>
<totfact> 0.12239566E+06</totfact>
</mgrwt>
</event>
<event>
 5    1  0.1154861E-006  0.2000062E+02  0.7818608E-02  0.1745316E+00
          4   -1    0    0  501    0  0.00000000000E+00  0.00000000000E+00  0.16906375717E+01  0.22078621784E+01  0.14200000000E+01 0.  1.
         -4   -1    0    0    0  501 -0.00000000000E+00 -0.00000000000E+00 -0.50776522468E+02  0.50796374221E+02  0.14200000000E+01 0. -1.
       1023    2    1    2    0    0  0.00000000000E+00  0.00000000000E+00 -0.49085884896E+02  0.53004236399E+02  0.20000624494E+02 0.  0.
        -11    1    3    3    0    0  0.53917581121E+01  0.84220501002E+01 -0.24715940278E+02  0.26662327121E+02  0.51100000000E-03 0. -1.
         11    1    3    3    0    0 -0.53917581121E+01 -0.84220501002E+01 -0.24369944619E+02  0.26341909278E+02  0.51100000000E-03 0.  1.
<mgrwt>
<rscale>  0 0.20000624E+02</rscale>
<asrwt>0</asrwt>
<pdfrwt beam="1">  1        4 0.30141169E-03 0.20000624E+02</pdfrwt>
<pdfrwt beam="2">  1       -4 0.78530852E-02 0.20000624E+02</pdfrwt>
<totfact> 0.11394975E+06</totfact>
</mgrwt>
</event>
<event>
 5    1  0.1154861E-006  0.2000743E+02  0.7818608E-02  0.1745180E+00
          4   -1    0    0  501    0  0.00000000000E+00  0.00000000000E+00  0.43900430866E+01  0.46139872455E+01  0.14200000000E+01 0.  1.
         -4   -1    0    0    0  501 -0.00000000000E+00 -0.00000000000E+00 -0.21981349038E+02  0.22027167442E+02  0.14200000000E+01 0. -1.
       1023    2    1    2    0    0  0.00000000000E+00  0.00000000000E+00 -0.17591305951E+02  0.26641154688E+02  0.20007425572E+02 0.  0.
        -11    1    3    3    0    0 -0.34939544978E+01 -0.93736854391E+01 -0.87637926653E+01  0.13299539800E+02  0.51100000000E-03 0.  1.
         11    1    3    3    0    0  0.34939544978E+01  0.93736854391E+01 -0.88275132861E+01  0.13341614888E+02  0.51100000000E-03 0. -1.
<mgrwt>
<rscale>  0 0.20007426E+02</rscale>
<asrwt>0</asrwt>
<pdfrwt beam="1">  1        4 0.69614222E-03 0.20007426E+02</pdfrwt>
<pdfrwt beam="2">  1       -4 0.34024969E-02 0.20007426E+02</pdfrwt>
<totfact> 0.12625488E+06</totfact>
</mgrwt>
</event>
<event>
 5    1  0.1154861E-006  0.2000244E+02  0.7818608E-02  0.1745280E+00
         -4   -1    0    0    0  501 -0.00000000000E+00  0.00000000000E+00  0.19632169153E+01  0.24229363707E+01  0.14200000000E+01 0. -1.
          4   -1    0    0  501    0  0.00000000000E+00 -0.00000000000E+00 -0.45137095717E+02  0.45159426588E+02  0.14200000000E+01 0.  1.
       1023    2    1    2    0    0  0.00000000000E+00  0.00000000000E+00 -0.43173878802E+02  0.47582362959E+02  0.20002436201E+02 0.  0.
        -11    1    3    3    0    0  0.93597491146E+01 -0.35227378063E+01 -0.21822167974E+02  0.24004616233E+02  0.51100000000E-03 0. -1.
         11    1    3    3    0    0 -0.93597491146E+01  0.35227378063E+01 -0.21351710828E+02  0.23577746726E+02  0.51100000000E-03 0.  1.
<mgrwt>
<rscale>  0 0.20002436E+02</rscale>
<asrwt>0</asrwt>
<pdfrwt beam="2">  1        4 0.69812487E-02 0.20002436E+02</pdfrwt>
<pdfrwt beam="1">  1       -4 0.33911420E-03 0.20002436E+02</pdfrwt>
<totfact> 0.11620254E+06</totfact>
</mgrwt>
</event>
<event>
 5    1  0.1154861E-006  0.2000023E+02  0.7818608E-02  0.1745323E+00
          4   -1    0    0  501    0  0.00000000000E+00  0.00000000000E+00  0.17870119851E+02  0.17926449272E+02  0.14200000000E+01 0. -1.
         -4   -1    0    0    0  501 -0.00000000000E+00 -0.00000000000E+00 -0.54396391164E+01  0.56219279360E+01  0.14200000000E+01 0.  1.
       1023    2    1    2    0    0  0.00000000000E+00  0.00000000000E+00  0.12430480735E+02  0.23548377208E+02  0.20000230444E+02 0.  0.
        -11    1    3    3    0    0  0.75037393896E+01 -0.66101908721E+01  0.61684986564E+01  0.11749515059E+02  0.51100000000E-03 0.  1.
         11    1    3    3    0    0 -0.75037393896E+01  0.66101908721E+01  0.62619820787E+01  0.11798862149E+02  0.51100000000E-03 0. -1.
<mgrwt>
<rscale>  0 0.20000230E+02</rscale>
<asrwt>0</asrwt>
<pdfrwt beam="1">  1        4 0.27676044E-02 0.20000230E+02</pdfrwt>
<pdfrwt beam="2">  1       -4 0.85522281E-03 0.20000230E+02</pdfrwt>
<totfact> 0.12807017E+06</totfact>
</mgrwt>
</event>
<event>
 5    1  0.1192585E-006  0.2000152E+02  0.7818608E-02  0.1745298E+00
         -4   -1    0    0    0  501 -0.00000000000E+00  0.00000000000E+00  0.10422467027E+02  0.10518755578E+02  0.14200000000E+01 0.  1.
          4   -1    0    0  501    0  0.00000000000E+00 -0.00000000000E+00 -0.94021409255E+01  0.95087672168E+01  0.14200000000E+01 0. -1.
       1023    2    1    2    0    0  0.00000000000E+00  0.00000000000E+00  0.10203261010E+01  0.20027522795E+02  0.20001515042E+02 0.  0.
        -11    1    3    3    0    0 -0.54724134034E+01 -0.83705816169E+01  0.47539518778E+00  0.10011990107E+02  0.51100000000E-03 0. -1.
         11    1    3    3    0    0  0.54724134034E+01  0.83705816169E+01  0.54493091323E+00  0.10015532688E+02  0.51100000000E-03 0.  1.
<mgrwt>
<rscale>  0 0.20001515E+02</rscale>
<asrwt>0</asrwt>
<pdfrwt beam="2">  1        4 0.14620921E-02 0.20001515E+02</pdfrwt>
<pdfrwt beam="1">  1       -4 0.16190653E-02 0.20001515E+02</pdfrwt>
<totfact> 0.13010399E+06</totfact>
</mgrwt>
</event>
<event>
 5    1  0.1154861E-006  0.2000033E+02  0.7818608E-02  0.1745322E+00
         -4   -1    0    0    0  501 -0.00000000000E+00  0.00000000000E+00  0.33441744534E+02  0.33471878905E+02  0.14200000000E+01 0. -1.
          4   -1    0    0  501    0  0.00000000000E+00 -0.00000000000E+00 -0.27884422341E+01  0.31291868102E+01  0.14200000000E+01 0.  1.
       1023    2    1    2    0    0  0.00000000000E+00  0.00000000000E+00  0.30653302300E+02  0.36601065716E+02  0.20000326739E+02 0.  0.
        -11    1    3    3    0    0 -0.42405224943E+01  0.90565123542E+01  0.15274243928E+02  0.18256641939E+02  0.51100000000E-03 0.  1.
         11    1    3    3    0    0  0.42405224943E+01 -0.90565123542E+01  0.15379058371E+02  0.18344423777E+02  0.51100000000E-03 0. -1.
<mgrwt>
<rscale>  0 0.20000327E+02</rscale>
<asrwt>0</asrwt>
<pdfrwt beam="2">  1        4 0.45752027E-03 0.20000327E+02</pdfrwt>
<pdfrwt beam="1">  1       -4 0.51734128E-02 0.20000327E+02</pdfrwt>
<totfact> 0.12123442E+06</totfact>
</mgrwt>
</event>
<event>
 5    1  0.1220590E-006  0.2000098E+02  0.7818608E-02  0.1745309E+00
         -4   -1    0    0    0  501 -0.00000000000E+00  0.00000000000E+00  0.52021661564E+01  0.53924885460E+01  0.14200000000E+01 0.  1.
          4   -1    0    0  501    0  0.00000000000E+00 -0.00000000000E+00 -0.18661520498E+02  0.18715468129E+02  0.14200000000E+01 0. -1.
       1023    2    1    2    0    0  0.00000000000E+00  0.00000000000E+00 -0.13459354342E+02  0.24107956675E+02  0.20000983870E+02 0.  0.
        -11    1    3    3    0    0  0.97999306394E+01 -0.19915421562E+01 -0.68145486262E+01  0.12101361656E+02  0.51100000000E-03 0. -1.
         11    1    3    3    0    0 -0.97999306394E+01  0.19915421562E+01 -0.66448057155E+01  0.12006595019E+02  0.51100000000E-03 0.  1.
<mgrwt>
<rscale>  0 0.20000984E+02</rscale>
<asrwt>0</asrwt>
<pdfrwt beam="2">  1        4 0.28897931E-02 0.20000984E+02</pdfrwt>
<pdfrwt beam="1">  1       -4 0.81912327E-03 0.20000984E+02</pdfrwt>
<totfact> 0.12774394E+06</totfact>
</mgrwt>
</event>
<event>
 5    1  0.1154861E-006  0.2000048E+02  0.7818608E-02  0.1745319E+00
         -4   -1    0    0    0  501 -0.00000000000E+00  0.00000000000E+00  0.37107266367E+01  0.39731463819E+01  0.14200000000E+01 0.  1.
          4   -1    0    0  501    0  0.00000000000E+00 -0.00000000000E+00 -0.25747130866E+02  0.25786258896E+02  0.14200000000E+01 0. -1.
       1023    2    1    2    0    0  0.00000000000E+00  0.00000000000E+00 -0.22036404230E+02  0.29759405278E+02  0.20000477272E+02 0.  0.
        -11    1    3    3    0    0 -0.32280995135E+01  0.94647074782E+01 -0.11105704838E+02  0.14944497125E+02  0.51100000000E-03 0.  1.
         11    1    3    3    0    0  0.32280995135E+01 -0.94647074782E+01 -0.10930699392E+02  0.14814908153E+02  0.51100000000E-03 0. -1.
<mgrwt>
<rscale>  0 0.20000477E+02</rscale>
<asrwt>0</asrwt>
<pdfrwt beam="2">  1        4 0.39842929E-02 0.20000477E+02</pdfrwt>
<pdfrwt beam="1">  1       -4 0.59407702E-03 0.20000477E+02</pdfrwt>
<totfact> 0.12467721E+06</totfact>
</mgrwt>
</event>
<event>
 4    1  0.1154861E-006  0.2022689E+02  0.7818608E-02  0.1740853E+00
          4   -1    0    0  501    0  0.00000000000E+00  0.00000000000E+00  0.10066465185E+03  0.10067466679E+03  0.14200000000E+01 0.  1.
         -4   -1    0    0    0  501 -0.00000000000E+00 -0.00000000000E+00 -0.50486719997E+00  0.15070802532E+01  0.14200000000E+01 0. -1.
        -11    1    1    2    0    0 -0.20941572549E+01 -0.98898979203E+01  0.48596992176E+02  0.49637316853E+02  0.51100000000E-03 0.  1.
         11    1    1    2    0    0  0.20941572549E+01  0.98898979203E+01  0.51562792475E+02  0.52544430186E+02  0.51100000000E-03 0. -1.
<mgrwt>
<rscale>  0 0.20226887E+02</rscale>
<asrwt>0</asrwt>
<pdfrwt beam="1">  1        4 0.15564731E-01 0.20226887E+02</pdfrwt>
<pdfrwt beam="2">  1       -4 0.15553559E-03 0.20226887E+02</pdfrwt>
<totfact> 0.95225567E+05</totfact>
</mgrwt>
</event>
<event>
 5    1  0.1166377E-006  0.2000146E+02  0.7818608E-02  0.1745299E+00
          4   -1    0    0  501    0  0.00000000000E+00  0.00000000000E+00  0.14760488635E+02  0.14828635296E+02  0.14200000000E+01 0. -1.
         -4   -1    0    0    0  501 -0.00000000000E+00 -0.00000000000E+00 -0.66165772088E+01  0.67672368039E+01  0.14200000000E+01 0.  1.
       1023    2    1    2    0    0  0.00000000000E+00  0.00000000000E+00  0.81439114262E+01  0.21595872100E+02  0.20001459908E+02 0.  0.
        -11    1    3    3    0    0  0.96155637075E+01 -0.27481754058E+01  0.40121715317E+01  0.10775391136E+02  0.51100000000E-03 0.  1.
         11    1    3    3    0    0 -0.96155637075E+01  0.27481754058E+01  0.41317398945E+01  0.10820480964E+02  0.51100000000E-03 0. -1.
<mgrwt>
<rscale>  0 0.20001460E+02</rscale>
<asrwt>0</asrwt>
<pdfrwt beam="1">  1        4 0.22876757E-02 0.20001460E+02</pdfrwt>
<pdfrwt beam="2">  1       -4 0.10347662E-02 0.20001460E+02</pdfrwt>
<totfact> 0.12917836E+06</totfact>
</mgrwt>
</event>
<event>
 5    1  0.1174757E-006  0.2000070E+02  0.7818608E-02  0.1745314E+00
          4   -1    0    0  501    0  0.00000000000E+00  0.00000000000E+00  0.50384357944E+01  0.52347144386E+01  0.14200000000E+01 0. -1.
         -4   -1    0    0    0  501 -0.00000000000E+00 -0.00000000000E+00 -0.19246658063E+02  0.19298970092E+02  0.14200000000E+01 0.  1.
       1023    2    1    2    0    0  0.00000000000E+00  0.00000000000E+00 -0.14208222269E+02  0.24533684530E+02  0.20000702402E+02 0.  0.
        -11    1    3    3    0    0  0.17083318742E+01  0.98531569502E+01 -0.70272700235E+01  0.12222341180E+02  0.51100000000E-03 0. -1.
         11    1    3    3    0    0 -0.17083318742E+01 -0.98531569502E+01 -0.71809522452E+01  0.12311343350E+02  0.51100000000E-03 0.  1.
<mgrwt>
<rscale>  0 0.20000702E+02</rscale>
<asrwt>0</asrwt>
<pdfrwt beam="1">  1        4 0.79426634E-03 0.20000702E+02</pdfrwt>
<pdfrwt beam="2">  1       -4 0.29801466E-02 0.20000702E+02</pdfrwt>
<totfact> 0.12750796E+06</totfact>
</mgrwt>
</event>
<event>
 5    1  0.1154861E-006  0.2000217E+02  0.7818608E-02  0.1745285E+00
          4   -1    0    0  501    0  0.00000000000E+00  0.00000000000E+00  0.11301726668E+01  0.18148526818E+01  0.14200000000E+01 0. -1.
         -4   -1    0    0    0  501 -0.00000000000E+00 -0.00000000000E+00 -0.67231952051E+02  0.67246946225E+02  0.14200000000E+01 0.  1.
       1023    2    1    2    0    0  0.00000000000E+00  0.00000000000E+00 -0.66101779384E+02  0.69061798906E+02  0.20002170644E+02 0.  0.
        -11    1    3    3    0    0  0.52044391090E+01  0.85396766241E+01 -0.32715352579E+02  0.34209743610E+02  0.51100000000E-03 0. -1.
         11    1    3    3    0    0 -0.52044391090E+01 -0.85396766241E+01 -0.33386426805E+02  0.34852055296E+02  0.51100000000E-03 0.  1.
<mgrwt>
<rscale>  0 0.20002171E+02</rscale>
<asrwt>0</asrwt>
<pdfrwt beam="1">  1        4 0.22769386E-03 0.20002171E+02</pdfrwt>
<pdfrwt beam="2">  1       -4 0.10397196E-01 0.20002171E+02</pdfrwt>
<totfact> 0.10781699E+06</totfact>
</mgrwt>
</event>
<event>
 5    1  0.1154861E-006  0.2000091E+02  0.7818608E-02  0.1745310E+00
          4   -1    0    0  501    0  0.00000000000E+00  0.00000000000E+00  0.30933999684E+00  0.14533035587E+01  0.14200000000E+01 0.  1.
         -4   -1    0    0    0  501 -0.00000000000E+00 -0.00000000000E+00 -0.11232486056E+03  0.11233383596E+03  0.14200000000E+01 0. -1.
       1023    2    1    2    0    0  0.00000000000E+00  0.00000000000E+00 -0.11201552057E+03  0.11378713951E+03  0.20000906758E+02 0.  0.
        -11    1    3    3    0    0 -0.13164816320E+01 -0.99133171729E+01 -0.56267613442E+02  0.57149377110E+02  0.51100000000E-03 0.  1.
         11    1    3    3    0    0  0.13164816320E+01  0.99133171729E+01 -0.55747907124E+02  0.56637762405E+02  0.51100000000E-03 0. -1.
<mgrwt>
<rscale>  0 0.20000907E+02</rscale>
<asrwt>0</asrwt>
<pdfrwt beam="1">  1        4 0.13627847E-03 0.20000907E+02</pdfrwt>
<pdfrwt beam="2">  1       -4 0.17369424E-01 0.20000907E+02</pdfrwt>
<totfact> 0.94243299E+05</totfact>
</mgrwt>
</event>
<event>
 4    1  0.1160863E-006  0.2006401E+02  0.7818608E-02  0.1744058E+00
          4   -1    0    0  501    0  0.00000000000E+00  0.00000000000E+00  0.42221406208E+01  0.44545338052E+01  0.14200000000E+01 0. -1.
         -4   -1    0    0    0  501 -0.00000000000E+00 -0.00000000000E+00 -0.22943148205E+02  0.22987049605E+02  0.14200000000E+01 0.  1.
        -11    1    1    2    0    0 -0.38182210959E+01 -0.92545375200E+01 -0.84785570889E+01  0.13119116114E+02  0.51100000000E-03 0. -1.
         11    1    1    2    0    0  0.38182210959E+01  0.92545375200E+01 -0.10242450495E+02  0.14322467296E+02  0.51100000000E-03 0.  1.
<mgrwt>
<rscale>  0 0.20064007E+02</rscale>
<asrwt>0</asrwt>
<pdfrwt beam="1">  1        4 0.67081354E-03 0.20064007E+02</pdfrwt>
<pdfrwt beam="2">  1       -4 0.35509684E-02 0.20064007E+02</pdfrwt>
<totfact> 0.12509976E+06</totfact>
</mgrwt>
</event>
<event>
 5    1  0.1154861E-006  0.2000034E+02  0.7818608E-02  0.1745321E+00
         -4   -1    0    0    0  501 -0.00000000000E+00  0.00000000000E+00  0.78112211275E+01  0.79392427537E+01  0.14200000000E+01 0. -1.
          4   -1    0    0  501    0  0.00000000000E+00 -0.00000000000E+00 -0.12530014387E+02  0.12610220480E+02  0.14200000000E+01 0.  1.
       1023    2    1    2    0    0  0.00000000000E+00  0.00000000000E+00 -0.47187932597E+01  0.20549463233E+02  0.20000335731E+02 0.  0.
        -11    1    3    3    0    0  0.21765988103E+01  0.97603851250E+01 -0.23857305115E+01  0.10280778692E+02  0.51100000000E-03 0. -1.
         11    1    3    3    0    0 -0.21765988103E+01 -0.97603851250E+01 -0.23330627482E+01  0.10268684542E+02  0.51100000000E-03 0.  1.
<mgrwt>
<rscale>  0 0.20000336E+02</rscale>
<asrwt>0</asrwt>
<pdfrwt beam="2">  1        4 0.19437120E-02 0.20000336E+02</pdfrwt>
<pdfrwt beam="1">  1       -4 0.12177438E-02 0.20000336E+02</pdfrwt>
<totfact> 0.12980950E+06</totfact>
</mgrwt>
</event>
<event>
 5    1  0.1154861E-006  0.2000244E+02  0.7818608E-02  0.1745280E+00
          4   -1    0    0  501    0  0.00000000000E+00  0.00000000000E+00  0.90116932752E+01  0.91228841759E+01  0.14200000000E+01 0.  1.
         -4   -1    0    0    0  501 -0.00000000000E+00 -0.00000000000E+00 -0.10873704127E+02  0.10966031253E+02  0.14200000000E+01 0. -1.
       1023    2    1    2    0    0  0.00000000000E+00  0.00000000000E+00 -0.18620108520E+01  0.20088915429E+02  0.20002435819E+02 0.  0.
        -11    1    3    3    0    0 -0.79643607763E+01  0.60485892194E+01 -0.84182232870E+00  0.10036191470E+02  0.51100000000E-03 0. -1.
         11    1    3    3    0    0  0.79643607763E+01 -0.60485892194E+01 -0.10201885233E+01  0.10052723959E+02  0.51100000000E-03 0.  1.
<mgrwt>
<rscale>  0 0.20002436E+02</rscale>
<asrwt>0</asrwt>
<pdfrwt beam="1">  1        4 0.14020696E-02 0.20002436E+02</pdfrwt>
<pdfrwt beam="2">  1       -4 0.16885328E-02 0.20002436E+02</pdfrwt>
<totfact> 0.13005535E+06</totfact>
</mgrwt>
</event>
<event>
 5    1  0.1159753E-006  0.2000217E+02  0.7818608E-02  0.1745285E+00
         -4   -1    0    0    0  501 -0.00000000000E+00  0.00000000000E+00  0.14513192011E+02  0.14582494380E+02  0.14200000000E+01 0.  1.
          4   -1    0    0  501    0  0.00000000000E+00 -0.00000000000E+00 -0.67318178200E+01  0.68799542994E+01  0.14200000000E+01 0. -1.
       1023    2    1    2    0    0  0.00000000000E+00  0.00000000000E+00  0.77813741908E+01  0.21462448679E+02  0.20002172857E+02 0.  0.
        -11    1    3    3    0    0 -0.98902355223E+01 -0.14802102152E+01  0.37639609401E+01  0.10685278807E+02  0.51100000000E-03 0. -1.
         11    1    3    3    0    0  0.98902355223E+01  0.14802102152E+01  0.40174132507E+01  0.10777169872E+02  0.51100000000E-03 0.  1.
<mgrwt>
<rscale>  0 0.20002173E+02</rscale>
<asrwt>0</asrwt>
<pdfrwt beam="2">  1        4 0.10523903E-02 0.20002173E+02</pdfrwt>
<pdfrwt beam="1">  1       -4 0.22495248E-02 0.20002173E+02</pdfrwt>
<totfact> 0.12924699E+06</totfact>
</mgrwt>
</event>
<event>
 4    1  0.1154861E-006  0.2003050E+02  0.7818608E-02  0.1744722E+00
         -4   -1    0    0    0  501 -0.00000000000E+00  0.00000000000E+00  0.96668088655E+01  0.97705472539E+01  0.14200000000E+01 0. -1.
          4   -1    0    0  501    0  0.00000000000E+00 -0.00000000000E+00 -0.10167525871E+02  0.10266205839E+02  0.14200000000E+01 0.  1.
        -11    1    1    2    0    0  0.28193497646E+01  0.96094228133E+01 -0.37469169544E+00  0.10021483624E+02  0.51100000000E-03 0. -1.
         11    1    1    2    0    0 -0.28193497646E+01 -0.96094228133E+01 -0.12602530996E+00  0.10015269469E+02  0.51100000000E-03 0.  1.
<mgrwt>
<rscale>  0 0.20030496E+02</rscale>
<asrwt>0</asrwt>
<pdfrwt beam="2">  1        4 0.15798054E-02 0.20030496E+02</pdfrwt>
<pdfrwt beam="1">  1       -4 0.15027720E-02 0.20030496E+02</pdfrwt>
<totfact> 0.12971435E+06</totfact>
</mgrwt>
</event>
<event>
 5    1  0.1181931E-006  0.2000121E+02  0.7818608E-02  0.1745304E+00
         -4   -1    0    0    0  501 -0.00000000000E+00  0.00000000000E+00  0.13910639538E+02  0.13982928604E+02  0.14200000000E+01 0. -1.
          4   -1    0    0  501    0  0.00000000000E+00 -0.00000000000E+00 -0.70274946298E+01  0.71695244453E+01  0.14200000000E+01 0.  1.
       1023    2    1    2    0    0  0.00000000000E+00  0.00000000000E+00  0.68831449077E+01  0.21152453049E+02  0.20001214618E+02 0.  0.
        -11    1    3    3    0    0 -0.65279289571E+01 -0.75760880475E+01  0.34052485708E+01  0.10564406498E+02  0.51100000000E-03 0.  1.
         11    1    3    3    0    0  0.65279289571E+01  0.75760880475E+01  0.34778963369E+01  0.10588046551E+02  0.51100000000E-03 0. -1.
<mgrwt>
<rscale>  0 0.20001215E+02</rscale>
<asrwt>0</asrwt>
<pdfrwt beam="2">  1        4 0.10976391E-02 0.20001215E+02</pdfrwt>
<pdfrwt beam="1">  1       -4 0.21565844E-02 0.20001215E+02</pdfrwt>
<totfact> 0.12944159E+06</totfact>
</mgrwt>
</event>
<event>
 5    1  0.1154861E-006  0.2000039E+02  0.7818608E-02  0.1745320E+00
         -4   -1    0    0    0  501 -0.00000000000E+00  0.00000000000E+00  0.14597255561E+01  0.20364672104E+01  0.14200000000E+01 0.  1.
          4   -1    0    0  501    0  0.00000000000E+00 -0.00000000000E+00 -0.56620197113E+02  0.56638000681E+02  0.14200000000E+01 0. -1.
       1023    2    1    2    0    0  0.00000000000E+00  0.00000000000E+00 -0.55160471557E+02  0.58674467891E+02  0.20000388995E+02 0.  0.
        -11    1    3    3    0    0 -0.97345802601E+01 -0.22889909278E+01 -0.27722674774E+02  0.29471142312E+02  0.51100000000E-03 0. -1.
         11    1    3    3    0    0  0.97345802601E+01  0.22889909278E+01 -0.27437796783E+02  0.29203325579E+02  0.51100000000E-03 0.  1.
<mgrwt>
<rscale>  0 0.20000389E+02</rscale>
<asrwt>0</asrwt>
<pdfrwt beam="2">  1        4 0.87565324E-02 0.20000389E+02</pdfrwt>
<pdfrwt beam="1">  1       -4 0.27030745E-03 0.20000389E+02</pdfrwt>
<totfact> 0.11169558E+06</totfact>
</mgrwt>
</event>
<event>
 5    1  0.1154861E-006  0.2000109E+02  0.7818608E-02  0.1745306E+00
         -4   -1    0    0    0  501 -0.00000000000E+00  0.00000000000E+00  0.21681282657E+01  0.25917523371E+01  0.14200000000E+01 0. -1.
          4   -1    0    0  501    0  0.00000000000E+00 -0.00000000000E+00 -0.41585639919E+02  0.41609876802E+02  0.14200000000E+01 0.  1.
       1023    2    1    2    0    0  0.00000000000E+00  0.00000000000E+00 -0.39417511653E+02  0.44201629139E+02  0.20001094810E+02 0.  0.
        -11    1    3    3    0    0 -0.75550118148E+01 -0.65518390728E+01 -0.19882056501E+02  0.22255358225E+02  0.51100000000E-03 0.  1.
         11    1    3    3    0    0  0.75550118148E+01  0.65518390728E+01 -0.19535455152E+02  0.21946270914E+02  0.51100000000E-03 0. -1.
<mgrwt>
<rscale>  0 0.20001095E+02</rscale>
<asrwt>0</asrwt>
<pdfrwt beam="2">  1        4 0.64322411E-02 0.20001095E+02</pdfrwt>
<pdfrwt beam="1">  1       -4 0.36800907E-03 0.20001095E+02</pdfrwt>
<totfact> 0.11769954E+06</totfact>
</mgrwt>
</event>
<event>
 5    1  0.1190252E-006  0.2000079E+02  0.7818608E-02  0.1745312E+00
          4   -1    0    0  501    0  0.00000000000E+00  0.00000000000E+00  0.95980347011E+01  0.97025084449E+01  0.14200000000E+01 0. -1.
         -4   -1    0    0    0  501 -0.00000000000E+00 -0.00000000000E+00 -0.10209339801E+02  0.10307619472E+02  0.14200000000E+01 0.  1.
       1023    2    1    2    0    0  0.00000000000E+00  0.00000000000E+00 -0.61130510008E+00  0.20010127917E+02  0.20000788118E+02 0.  0.
        -11    1    3    3    0    0 -0.73131191379E+01 -0.68208712555E+01 -0.34908780311E+00  0.10006390896E+02  0.51100000000E-03 0.  1.
         11    1    3    3    0    0  0.73131191379E+01  0.68208712555E+01 -0.26221729697E+00  0.10003737021E+02  0.51100000000E-03 0. -1.
<mgrwt>
<rscale>  0 0.20000788E+02</rscale>
<asrwt>0</asrwt>
<pdfrwt beam="1">  1        4 0.14922171E-02 0.20000788E+02</pdfrwt>
<pdfrwt beam="2">  1       -4 0.15862641E-02 0.20000788E+02</pdfrwt>
<totfact> 0.13012397E+06</totfact>
</mgrwt>
</event>
<event>
 5    1  0.1174287E-006  0.2000136E+02  0.7818608E-02  0.1745301E+00
         -4   -1    0    0    0  501 -0.00000000000E+00  0.00000000000E+00  0.31998188384E+02  0.32029680920E+02  0.14200000000E+01 0. -1.
          4   -1    0    0  501    0  0.00000000000E+00 -0.00000000000E+00 -0.29294834406E+01  0.32554989216E+01  0.14200000000E+01 0.  1.
       1023    2    1    2    0    0  0.00000000000E+00  0.00000000000E+00  0.29068704943E+02  0.35285179842E+02  0.20001357689E+02 0.  0.
        -11    1    3    3    0    0 -0.61254084850E+01  0.79049749660E+01  0.14418417973E+02  0.17547080538E+02  0.51100000000E-03 0.  1.
         11    1    3    3    0    0  0.61254084850E+01 -0.79049749660E+01  0.14650286971E+02  0.17738099304E+02  0.51100000000E-03 0. -1.
<mgrwt>
<rscale>  0 0.20001358E+02</rscale>
<asrwt>0</asrwt>
<pdfrwt beam="2">  1        4 0.47819036E-03 0.20001358E+02</pdfrwt>
<pdfrwt beam="1">  1       -4 0.49502990E-02 0.20001358E+02</pdfrwt>
<totfact> 0.12186285E+06</totfact>
</mgrwt>
</event>
<event>
 5    1  0.1154861E-006  0.2000424E+02  0.7818608E-02  0.1745244E+00
         -4   -1    0    0    0  501 -0.00000000000E+00  0.00000000000E+00  0.59124340345E+01  0.60805654517E+01  0.14200000000E+01 0. -1.
          4   -1    0    0  501    0  0.00000000000E+00 -0.00000000000E+00 -0.16484384849E+02  0.16545432719E+02  0.14200000000E+01 0.  1.
       1023    2    1    2    0    0  0.00000000000E+00  0.00000000000E+00 -0.10571950815E+02  0.22625998171E+02  0.20004240780E+02 0.  0.
        -11    1    3    3    0    0  0.52754207069E+01 -0.84964115278E+01 -0.54587707106E+01  0.11393737333E+02  0.51100000000E-03 0.  1.
         11    1    3    3    0    0 -0.52754207069E+01  0.84964115278E+01 -0.51131801041E+01  0.11232260838E+02  0.51100000000E-03 0. -1.
<mgrwt>
<rscale>  0 0.20004241E+02</rscale>
<asrwt>0</asrwt>
<pdfrwt beam="2">  1        4 0.25536884E-02 0.20004241E+02</pdfrwt>
<pdfrwt beam="1">  1       -4 0.92723442E-03 0.20004241E+02</pdfrwt>
<totfact> 0.12854483E+06</totfact>
</mgrwt>
</event>
<event>
 5    1  0.1154861E-006  0.2000009E+02  0.7818608E-02  0.1745326E+00
          4   -1    0    0  501    0  0.00000000000E+00  0.00000000000E+00  0.24642380044E+01  0.28440936944E+01  0.14200000000E+01 0. -1.
         -4   -1    0    0    0  501 -0.00000000000E+00 -0.00000000000E+00 -0.37282608028E+02  0.37309640328E+02  0.14200000000E+01 0.  1.
       1023    2    1    2    0    0  0.00000000000E+00  0.00000000000E+00 -0.34818370024E+02  0.40153734022E+02  0.20000086620E+02 0.  0.
        -11    1    3    3    0    0 -0.99785806736E+01  0.65448714599E+00 -0.17451310740E+02  0.20113395350E+02  0.51100000000E-03 0. -1.
         11    1    3    3    0    0  0.99785806736E+01 -0.65448714599E+00 -0.17367059284E+02  0.20040338673E+02  0.51100000000E-03 0.  1.
<mgrwt>
<rscale>  0 0.20000087E+02</rscale>
<asrwt>0</asrwt>
<pdfrwt beam="1">  1        4 0.41041264E-03 0.20000087E+02</pdfrwt>
<pdfrwt beam="2">  1       -4 0.57670846E-02 0.20000087E+02</pdfrwt>
<totfact> 0.11955355E+06</totfact>
</mgrwt>
</event>
<event>
 5    1  0.1179033E-006  0.2000168E+02  0.7818608E-02  0.1745295E+00
          4   -1    0    0  501    0  0.00000000000E+00  0.00000000000E+00  0.11002161572E+02  0.11093419638E+02  0.14200000000E+01 0. -1.
         -4   -1    0    0    0  501 -0.00000000000E+00 -0.00000000000E+00 -0.89053643313E+01  0.90178663703E+01  0.14200000000E+01 0.  1.
       1023    2    1    2    0    0  0.00000000000E+00  0.00000000000E+00  0.20967972408E+01  0.20111286008E+02  0.20001681585E+02 0.  0.
        -11    1    3    3    0    0  0.33631248275E+01  0.94181391797E+01  0.97828788825E+00  0.10048333278E+02  0.51100000000E-03 0.  1.
         11    1    3    3    0    0 -0.33631248275E+01 -0.94181391797E+01  0.11185093525E+01  0.10062952730E+02  0.51100000000E-03 0. -1.
<mgrwt>
<rscale>  0 0.20001682E+02</rscale>
<asrwt>0</asrwt>
<pdfrwt beam="1">  1        4 0.17083141E-02 0.20001682E+02</pdfrwt>
<pdfrwt beam="2">  1       -4 0.13857299E-02 0.20001682E+02</pdfrwt>
<totfact> 0.13005210E+06</totfact>
</mgrwt>
</event>
<event>
 4    1  0.1154861E-006  0.2002366E+02  0.7818608E-02  0.1744858E+00
          4   -1    0    0  501    0  0.00000000000E+00  0.00000000000E+00  0.65909541935E+00  0.15655052768E+01  0.14200000000E+01 0. -1.
         -4   -1    0    0    0  501 -0.00000000000E+00 -0.00000000000E+00 -0.89202228294E+02  0.89213529986E+02  0.14200000000E+01 0.  1.
        -11    1    1    2    0    0  0.47233193252E+01 -0.88251635612E+01 -0.45216669406E+02  0.46311342561E+02  0.51100000000E-03 0.  1.
         11    1    1    2    0    0 -0.47233193252E+01  0.88251635612E+01 -0.43326463469E+02  0.44467692703E+02  0.51100000000E-03 0. -1.
<mgrwt>
<rscale>  0 0.20023658E+02</rscale>
<asrwt>0</asrwt>
<pdfrwt beam="1">  1        4 0.17199256E-03 0.20023658E+02</pdfrwt>
<pdfrwt beam="2">  1       -4 0.13794007E-01 0.20023658E+02</pdfrwt>
<totfact> 0.10048275E+06</totfact>
</mgrwt>
</event>
<event>
 4    1  0.1154861E-006  0.2003479E+02  0.7818608E-02  0.1744637E+00
          4   -1    0    0  501    0  0.00000000000E+00  0.00000000000E+00  0.54215012963E+02  0.54233606100E+02  0.14200000000E+01 0. -1.
         -4   -1    0    0    0  501 -0.00000000000E+00 -0.00000000000E+00 -0.15568046678E+01  0.21071404257E+01  0.14200000000E+01 0.  1.
        -11    1    1    2    0    0 -0.92409919807E+01 -0.38642829330E+01  0.25935515131E+02  0.27802509972E+02  0.51100000000E-03 0. -1.
         11    1    1    2    0    0  0.92409919807E+01  0.38642829330E+01  0.26722693165E+02  0.28538236554E+02  0.51100000000E-03 0.  1.
<mgrwt>
<rscale>  0 0.20034790E+02</rscale>
<asrwt>0</asrwt>
<pdfrwt beam="1">  1        4 0.83845352E-02 0.20034790E+02</pdfrwt>
<pdfrwt beam="2">  1       -4 0.28327216E-03 0.20034790E+02</pdfrwt>
<totfact> 0.11222117E+06</totfact>
</mgrwt>
</event>
<event>
 5    1  0.1189144E-006  0.2000185E+02  0.7818608E-02  0.1745291E+00
          4   -1    0    0  501    0  0.00000000000E+00  0.00000000000E+00  0.61855635426E+01  0.63464632938E+01  0.14200000000E+01 0. -1.
         -4   -1    0    0    0  501 -0.00000000000E+00 -0.00000000000E+00 -0.15768855575E+02  0.15832662636E+02  0.14200000000E+01 0.  1.
       1023    2    1    2    0    0  0.00000000000E+00  0.00000000000E+00 -0.95832920321E+01  0.22179125929E+02  0.20001853435E+02 0.  0.
        -11    1    3    3    0    0 -0.20261591737E+01  0.97929942234E+01 -0.49051510688E+01  0.11138606920E+02  0.51100000000E-03 0. -1.
         11    1    3    3    0    0  0.20261591737E+01 -0.97929942234E+01 -0.46781409632E+01  0.11040519009E+02  0.51100000000E-03 0.  1.
<mgrwt>
<rscale>  0 0.20001853E+02</rscale>
<asrwt>0</asrwt>
<pdfrwt beam="1">  1        4 0.96891031E-03 0.20001853E+02</pdfrwt>
<pdfrwt beam="2">  1       -4 0.24432629E-02 0.20001853E+02</pdfrwt>
<totfact> 0.12883405E+06</totfact>
</mgrwt>
</event>
<event>
 5    1  0.1154861E-006  0.2000164E+02  0.7818608E-02  0.1745295E+00
         -4   -1    0    0    0  501 -0.00000000000E+00  0.00000000000E+00  0.76232999386E+02  0.76246223483E+02  0.14200000000E+01 0.  1.
          4   -1    0    0  501    0  0.00000000000E+00 -0.00000000000E+00 -0.91042741538E+00  0.16867952095E+01  0.14200000000E+01 0. -1.
       1023    2    1    2    0    0  0.00000000000E+00  0.00000000000E+00  0.75322571970E+02  0.77933018692E+02  0.20001638788E+02 0.  0.
        -11    1    3    3    0    0 -0.12124053508E+01 -0.99270553129E+01  0.37684129582E+02  0.38988587773E+02  0.51100000000E-03 0.  1.
         11    1    3    3    0    0  0.12124053508E+01  0.99270553129E+01  0.37638442389E+02  0.38944430919E+02  0.51100000000E-03 0. -1.
<mgrwt>
<rscale>  0 0.20001639E+02</rscale>
<asrwt>0</asrwt>
<pdfrwt beam="2">  1        4 0.20080357E-03 0.20001639E+02</pdfrwt>
<pdfrwt beam="1">  1       -4 0.11788893E-01 0.20001639E+02</pdfrwt>
<totfact> 0.10477527E+06</totfact>
</mgrwt>
</event>
<event>
 5    1  0.1154861E-006  0.2000367E+02  0.7818608E-02  0.1745255E+00
         -4   -1    0    0    0  501 -0.00000000000E+00  0.00000000000E+00  0.52431481116E+02  0.52450706497E+02  0.14200000000E+01 0. -1.
          4   -1    0    0  501    0  0.00000000000E+00 -0.00000000000E+00 -0.16213718082E+01  0.21552834014E+01  0.14200000000E+01 0.  1.
       1023    2    1    2    0    0  0.00000000000E+00  0.00000000000E+00  0.50810109308E+02  0.54605989899E+02  0.20003672785E+02 0.  0.
        -11    1    3    3    0    0  0.28074498096E+01 -0.95985096737E+01  0.24985974394E+02  0.26913046633E+02  0.51100000000E-03 0.  1.
         11    1    3    3    0    0 -0.28074498096E+01  0.95985096737E+01  0.25824134914E+02  0.27692943266E+02  0.51100000000E-03 0. -1.
<mgrwt>
<rscale>  0 0.20003673E+02</rscale>
<asrwt>0</asrwt>
<pdfrwt beam="2">  1        4 0.29199081E-03 0.20003673E+02</pdfrwt>
<pdfrwt beam="1">  1       -4 0.81089308E-02 0.20003673E+02</pdfrwt>
<totfact> 0.11326548E+06</totfact>
</mgrwt>
</event>
<event>
 5    1  0.1154861E-006  0.2000030E+02  0.7818608E-02  0.1745322E+00
         -4   -1    0    0    0  501 -0.00000000000E+00  0.00000000000E+00  0.10957392809E+02  0.11049020643E+02  0.14200000000E+01 0.  1.
          4   -1    0    0  501    0  0.00000000000E+00 -0.00000000000E+00 -0.89406358360E+01  0.90526995505E+01  0.14200000000E+01 0. -1.
       1023    2    1    2    0    0  0.00000000000E+00  0.00000000000E+00  0.20167569728E+01  0.20101720193E+02  0.20000296149E+02 0.  0.
        -11    1    3    3    0    0 -0.88980644701E+01 -0.45636411908E+01  0.10327712443E+01  0.10053307363E+02  0.51100000000E-03 0. -1.
         11    1    3    3    0    0  0.88980644701E+01  0.45636411908E+01  0.98398572847E+00  0.10048412830E+02  0.51100000000E-03 0.  1.
<mgrwt>
<rscale>  0 0.20000296E+02</rscale>
<asrwt>0</asrwt>
<pdfrwt beam="2">  1        4 0.13911510E-02 0.20000296E+02</pdfrwt>
<pdfrwt beam="1">  1       -4 0.17014213E-02 0.20000296E+02</pdfrwt>
<totfact> 0.13007617E+06</totfact>
</mgrwt>
</event>
<event>
 5    1  0.1154861E-006  0.2000067E+02  0.7818608E-02  0.1745315E+00
         -4   -1    0    0    0  501 -0.00000000000E+00  0.00000000000E+00  0.87963344112E+00  0.16703757035E+01  0.14200000000E+01 0. -1.
          4   -1    0    0  501    0  0.00000000000E+00 -0.00000000000E+00 -0.77637094807E+02  0.77650079781E+02  0.14200000000E+01 0.  1.
       1023    2    1    2    0    0  0.00000000000E+00  0.00000000000E+00 -0.76757461365E+02  0.79320455484E+02  0.20000669564E+02 0.  0.
        -11    1    3    3    0    0  0.56285027409E+01 -0.82658269090E+01 -0.38170459281E+02  0.39458685984E+02  0.51100000000E-03 0.  1.
         11    1    3    3    0    0 -0.56285027409E+01  0.82658269090E+01 -0.38587002084E+02  0.39861769500E+02  0.51100000000E-03 0. -1.
<mgrwt>
<rscale>  0 0.20000670E+02</rscale>
<asrwt>0</asrwt>
<pdfrwt beam="2">  1        4 0.12005990E-01 0.20000670E+02</pdfrwt>
<pdfrwt beam="1">  1       -4 0.19715345E-03 0.20000670E+02</pdfrwt>
<totfact> 0.10432730E+06</totfact>
</mgrwt>
</event>
<event>
 5    1  0.1154861E-006  0.2000209E+02  0.7818608E-02  0.1745286E+00
         -4   -1    0    0    0  501 -0.00000000000E+00  0.00000000000E+00  0.16513093577E+01  0.21778940733E+01  0.14200000000E+01 0.  1.
          4   -1    0    0  501    0  0.00000000000E+00 -0.00000000000E+00 -0.51703448882E+02  0.51722944873E+02  0.14200000000E+01 0. -1.
       1023    2    1    2    0    0  0.00000000000E+00  0.00000000000E+00 -0.50052139524E+02  0.53900838946E+02  0.20002094093E+02 0.  0.
        -11    1    3    3    0    0  0.66737874243E+01 -0.74479335626E+01 -0.24759454233E+02  0.26702841181E+02  0.51100000000E-03 0. -1.
         11    1    3    3    0    0 -0.66737874243E+01  0.74479335626E+01 -0.25292685291E+02  0.27197997765E+02  0.51100000000E-03 0.  1.
<mgrwt>
<rscale>  0 0.20002094E+02</rscale>
<asrwt>0</asrwt>
<pdfrwt beam="2">  1        4 0.79963819E-02 0.20002094E+02</pdfrwt>
<pdfrwt beam="1">  1       -4 0.29605384E-03 0.20002094E+02</pdfrwt>
<totfact> 0.11356818E+06</totfact>
</mgrwt>
</event>
<event>
 5    1  0.1154861E-006  0.2000139E+02  0.7818608E-02  0.1745301E+00
         -4   -1    0    0    0  501 -0.00000000000E+00  0.00000000000E+00  0.65567655915E+02  0.65583030597E+02  0.14200000000E+01 0. -1.
          4   -1    0    0  501    0  0.00000000000E+00 -0.00000000000E+00 -0.11758670327E+01  0.18436548697E+01  0.14200000000E+01 0. -1.
       1023    2    1    2    0    0  0.00000000000E+00  0.00000000000E+00  0.64391788883E+02  0.67426685466E+02  0.20001385889E+02 0.  0.
        -11    1    3    3    0    0  0.49024125128E+01  0.87164418549E+01  0.31986667474E+02  0.33513533138E+02  0.51100000000E-03 0. -1.
         11    1    3    3    0    0 -0.49024125128E+01 -0.87164418549E+01  0.32405121409E+02  0.33913152328E+02  0.51100000000E-03 0.  1.
<mgrwt>
<rscale>  0 0.20001386E+02</rscale>
<asrwt>0</asrwt>
<pdfrwt beam="2">  1        4 0.23345366E-03 0.20001386E+02</pdfrwt>
<pdfrwt beam="1">  1       -4 0.10139879E-01 0.20001386E+02</pdfrwt>
<totfact> 0.10841092E+06</totfact>
</mgrwt>
</event>
<event>
 5    1  0.1154861E-006  0.2000261E+02  0.7818608E-02  0.1745276E+00
          4   -1    0    0  501    0  0.00000000000E+00  0.00000000000E+00  0.40252869450E+02  0.40277908324E+02  0.14200000000E+01 0.  1.
         -4   -1    0    0    0  501 -0.00000000000E+00 -0.00000000000E+00 -0.22540714876E+01  0.26640642393E+01  0.14200000000E+01 0. -1.
       1023    2    1    2    0    0  0.00000000000E+00  0.00000000000E+00  0.37998797963E+02  0.42941972563E+02  0.20002608856E+02 0.  0.
        -11    1    3    3    0    0  0.51102925403E+01 -0.85961575066E+01  0.19279937118E+02  0.21719230863E+02  0.51100000000E-03 0. -1.
         11    1    3    3    0    0 -0.51102925403E+01  0.85961575066E+01  0.18718860844E+02  0.21222741700E+02  0.51100000000E-03 0.  1.
<mgrwt>
<rscale>  0 0.20002609E+02</rscale>
<asrwt>0</asrwt>
<pdfrwt beam="1">  1        4 0.62262123E-02 0.20002609E+02</pdfrwt>
<pdfrwt beam="2">  1       -4 0.38024425E-03 0.20002609E+02</pdfrwt>
<totfact> 0.11824669E+06</totfact>
</mgrwt>
</event>
<event>
 5    1  0.1154861E-006  0.2000008E+02  0.7818608E-02  0.1745327E+00
         -4   -1    0    0    0  501 -0.00000000000E+00  0.00000000000E+00  0.67560546884E+01  0.69036711214E+01  0.14200000000E+01 0. -1.
          4   -1    0    0  501    0  0.00000000000E+00 -0.00000000000E+00 -0.14458919509E+02  0.14528480766E+02  0.14200000000E+01 0.  1.
       1023    2    1    2    0    0  0.00000000000E+00  0.00000000000E+00 -0.77028648207E+01  0.21432151888E+02  0.20000075202E+02 0.  0.
        -11    1    3    3    0    0 -0.99511406712E+01  0.98765752350E+00 -0.38416274445E+01  0.10712551971E+02  0.51100000000E-03 0. -1.
         11    1    3    3    0    0  0.99511406712E+01 -0.98765752350E+00 -0.38612373762E+01  0.10719599917E+02  0.51100000000E-03 0.  1.
<mgrwt>
<rscale>  0 0.20000075E+02</rscale>
<asrwt>0</asrwt>
<pdfrwt beam="2">  1        4 0.22411551E-02 0.20000075E+02</pdfrwt>
<pdfrwt beam="1">  1       -4 0.10560990E-02 0.20000075E+02</pdfrwt>
<totfact> 0.12929239E+06</totfact>
</mgrwt>
</event>
<event>
 5    1  0.1154861E-006  0.2000727E+02  0.7818608E-02  0.1745184E+00
          4   -1    0    0  501    0  0.00000000000E+00  0.00000000000E+00  0.83905184900E+02  0.83917199984E+02  0.14200000000E+01 0.  1.
         -4   -1    0    0    0  501 -0.00000000000E+00 -0.00000000000E+00 -0.75355542746E+00  0.16075589514E+01  0.14200000000E+01 0. -1.
       1023    2    1    2    0    0  0.00000000000E+00  0.00000000000E+00  0.83151629473E+02  0.85524758935E+02  0.20007271352E+02 0.  0.
        -11    1    3    3    0    0 -0.99225521091E+01  0.12668956428E+01  0.41134433117E+02  0.42333245246E+02  0.51100000000E-03 0.  1.
         11    1    3    3    0    0  0.99225521091E+01 -0.12668956428E+01  0.42017196355E+02  0.43191513689E+02  0.51100000000E-03 0. -1.
<mgrwt>
<rscale>  0 0.20007271E+02</rscale>
<asrwt>0</asrwt>
<pdfrwt beam="1">  1        4 0.12975113E-01 0.20007271E+02</pdfrwt>
<pdfrwt beam="2">  1       -4 0.18254833E-03 0.20007271E+02</pdfrwt>
<totfact> 0.10226739E+06</totfact>
</mgrwt>
</event>
<event>
 5    1  0.1154861E-006  0.2000038E+02  0.7818608E-02  0.1745321E+00
         -4   -1    0    0    0  501 -0.00000000000E+00  0.00000000000E+00  0.67081849184E+02  0.67096876902E+02  0.14200000000E+01 0.  1.
          4   -1    0    0  501    0  0.00000000000E+00 -0.00000000000E+00 -0.11339018674E+01  0.18171773290E+01  0.14200000000E+01 0. -1.
       1023    2    1    2    0    0  0.00000000000E+00  0.00000000000E+00  0.65947947317E+02  0.68914054231E+02  0.20000377877E+02 0.  0.
        -11    1    3    3    0    0 -0.73150412310E+01  0.68186448567E+01  0.32993662761E+02  0.34475868786E+02  0.51100000000E-03 0. -1.
         11    1    3    3    0    0  0.73150412310E+01 -0.68186448567E+01  0.32954284556E+02  0.34438185445E+02  0.51100000000E-03 0.  1.
<mgrwt>
<rscale>  0 0.20000378E+02</rscale>
<asrwt>0</asrwt>
<pdfrwt beam="2">  1        4 0.22816199E-03 0.20000378E+02</pdfrwt>
<pdfrwt beam="1">  1       -4 0.10374004E-01 0.20000378E+02</pdfrwt>
<totfact> 0.10788896E+06</totfact>
</mgrwt>
</event>
<event>
 5    1  0.1216502E-006  0.2000097E+02  0.7818608E-02  0.1745309E+00
          4   -1    0    0  501    0  0.00000000000E+00  0.00000000000E+00  0.30183654625E+02  0.30217038348E+02  0.14200000000E+01 0.  1.
         -4   -1    0    0    0  501 -0.00000000000E+00 -0.00000000000E+00 -0.31242924357E+01  0.34318512823E+01  0.14200000000E+01 0. -1.
       1023    2    1    2    0    0  0.00000000000E+00  0.00000000000E+00  0.27059362190E+02  0.33648889631E+02  0.20000967258E+02 0.  0.
        -11    1    3    3    0    0  0.91922408352E+01  0.39385678331E+01  0.13516179626E+02  0.16813587366E+02  0.51100000000E-03 0.  1.
         11    1    3    3    0    0 -0.91922408352E+01 -0.39385678331E+01  0.13543182563E+02  0.16835302265E+02  0.51100000000E-03 0. -1.
<mgrwt>
<rscale>  0 0.20000967E+02</rscale>
<asrwt>0</asrwt>
<pdfrwt beam="1">  1        4 0.46698656E-02 0.20000967E+02</pdfrwt>
<pdfrwt beam="2">  1       -4 0.50688672E-03 0.20000967E+02</pdfrwt>
<totfact> 0.12267884E+06</totfact>
</mgrwt>
</event>
<event>
 5    1  0.1223162E-006  0.2000106E+02  0.7818608E-02  0.1745307E+00
          4   -1    0    0  501    0  0.00000000000E+00  0.00000000000E+00  0.13038808836E+02  0.13115903929E+02  0.14200000000E+01 0.  1.
         -4   -1    0    0    0  501 -0.00000000000E+00 -0.00000000000E+00 -0.75037348971E+01  0.76369128190E+01  0.14200000000E+01 0. -1.
       1023    2    1    2    0    0  0.00000000000E+00  0.00000000000E+00  0.55350739390E+01  0.20752816748E+02  0.20001058958E+02 0.  0.
        -11    1    3    3    0    0 -0.18203699666E+01  0.98334223575E+01  0.27939399258E+01  0.10383450421E+02  0.51100000000E-03 0. -1.
         11    1    3    3    0    0  0.18203699666E+01 -0.98334223575E+01  0.27411340132E+01  0.10369366327E+02  0.51100000000E-03 0.  1.
<mgrwt>
<rscale>  0 0.20001059E+02</rscale>
<asrwt>0</asrwt>
<pdfrwt beam="1">  1        4 0.20221454E-02 0.20001059E+02</pdfrwt>
<pdfrwt beam="2">  1       -4 0.11705956E-02 0.20001059E+02</pdfrwt>
<totfact> 0.12967972E+06</totfact>
</mgrwt>
</event>
<event>
 5    1  0.1223486E-006  0.2000098E+02  0.7818608E-02  0.1745309E+00
         -4   -1    0    0    0  501 -0.00000000000E+00  0.00000000000E+00  0.10148901507E+02  0.10247760819E+02  0.14200000000E+01 0.  1.
          4   -1    0    0  501    0  0.00000000000E+00 -0.00000000000E+00 -0.96554452824E+01  0.97593044630E+01  0.14200000000E+01 0. -1.
       1023    2    1    2    0    0  0.00000000000E+00  0.00000000000E+00  0.49345622477E+00  0.20007065282E+02  0.20000979030E+02 0.  0.
        -11    1    3    3    0    0  0.91658113495E+00 -0.99581139441E+01  0.32182408844E+00  0.10005384815E+02  0.51100000000E-03 0. -1.
         11    1    3    3    0    0 -0.91658113495E+00  0.99581139441E+01  0.17163213633E+00  0.10001680466E+02  0.51100000000E-03 0.  1.
<mgrwt>
<rscale>  0 0.20000979E+02</rscale>
<asrwt>0</asrwt>
<pdfrwt beam="2">  1        4 0.15010469E-02 0.20000979E+02</pdfrwt>
<pdfrwt beam="1">  1       -4 0.15769632E-02 0.20000979E+02</pdfrwt>
<totfact> 0.13012325E+06</totfact>
</mgrwt>
</event>
<event>
 5    1  0.1154861E-006  0.2000115E+02  0.7818608E-02  0.1745305E+00
          4   -1    0    0  501    0  0.00000000000E+00  0.00000000000E+00  0.51137629996E+02  0.51157341620E+02  0.14200000000E+01 0. -1.
         -4   -1    0    0    0  501 -0.00000000000E+00 -0.00000000000E+00 -0.16751554064E+01  0.21960295161E+01  0.14200000000E+01 0.  1.
       1023    2    1    2    0    0  0.00000000000E+00  0.00000000000E+00  0.49462474590E+02  0.53353371136E+02  0.20001145443E+02 0.  0.
        -11    1    3    3    0    0 -0.59595424477E+01  0.80307331305E+01  0.24594341514E+02  0.26549773173E+02  0.51100000000E-03 0. -1.
         11    1    3    3    0    0  0.59595424477E+01 -0.80307331305E+01  0.24868133076E+02  0.26803597963E+02  0.51100000000E-03 0.  1.
<mgrwt>
<rscale>  0 0.20001145E+02</rscale>
<asrwt>0</asrwt>
<pdfrwt beam="1">  1        4 0.79089112E-02 0.20001145E+02</pdfrwt>
<pdfrwt beam="2">  1       -4 0.29929973E-03 0.20001145E+02</pdfrwt>
<totfact> 0.11380137E+06</totfact>
</mgrwt>
</event>
<event>
 5    1  0.1154861E-006  0.2000299E+02  0.7818608E-02  0.1745269E+00
         -4   -1    0    0    0  501 -0.00000000000E+00  0.00000000000E+00  0.33302489975E+02  0.33332750239E+02  0.14200000000E+01 0. -1.
          4   -1    0    0  501    0  0.00000000000E+00 -0.00000000000E+00 -0.28023564089E+01  0.31415921827E+01  0.14200000000E+01 0.  1.
       1023    2    1    2    0    0  0.00000000000E+00  0.00000000000E+00  0.30500133566E+02  0.36474342422E+02  0.20002987466E+02 0.  0.
        -11    1    3    3    0    0  0.42213977220E+01  0.90668103414E+01  0.15156587178E+02  0.18159002826E+02  0.51100000000E-03 0. -1.
         11    1    3    3    0    0 -0.42213977220E+01 -0.90668103414E+01  0.15343546388E+02  0.18315339596E+02  0.51100000000E-03 0.  1.
<mgrwt>
<rscale>  0 0.20002987E+02</rscale>
<asrwt>0</asrwt>
<pdfrwt beam="2">  1        4 0.45955450E-03 0.20002987E+02</pdfrwt>
<pdfrwt beam="1">  1       -4 0.51518830E-02 0.20002987E+02</pdfrwt>
<totfact> 0.12126304E+06</totfact>
</mgrwt>
</event>
<event>
 4    1  0.1154861E-006  0.2001413E+02  0.7818608E-02  0.1745047E+00
          4   -1    0    0  501    0  0.00000000000E+00  0.00000000000E+00  0.37217007271E+01  0.39833975827E+01  0.14200000000E+01 0.  1.
         -4   -1    0    0    0  501 -0.00000000000E+00 -0.00000000000E+00 -0.25711584607E+02  0.25750766648E+02  0.14200000000E+01 0. -1.
        -11    1    1    2    0    0  0.54590597866E+01  0.83841885326E+01 -0.11311603346E+02  0.15101268874E+02  0.51100000000E-03 0. -1.
         11    1    1    2    0    0 -0.54590597866E+01 -0.83841885326E+01 -0.10678280534E+02  0.14632895357E+02  0.51100000000E-03 0.  1.
<mgrwt>
<rscale>  0 0.20014133E+02</rscale>
<asrwt>0</asrwt>
<pdfrwt beam="1">  1        4 0.59571389E-03 0.20014133E+02</pdfrwt>
<pdfrwt beam="2">  1       -4 0.39787728E-02 0.20014133E+02</pdfrwt>
<totfact> 0.12451759E+06</totfact>
</mgrwt>
</event>
<event>
 5    1  0.1154861E-006  0.2000033E+02  0.7818608E-02  0.1745322E+00
          4   -1    0    0  501    0  0.00000000000E+00  0.00000000000E+00  0.14643882980E+02  0.14712569752E+02  0.14200000000E+01 0.  1.
         -4   -1    0    0    0  501 -0.00000000000E+00 -0.00000000000E+00 -0.66694297862E+01  0.68189217383E+01  0.14200000000E+01 0. -1.
       1023    2    1    2    0    0  0.00000000000E+00  0.00000000000E+00  0.79744531934E+01  0.21531491491E+02  0.20000330549E+02 0.  0.
        -11    1    3    3    0    0 -0.58891770542E+01  0.80820116926E+01  0.40352014737E+01  0.10783513832E+02  0.51100000000E-03 0. -1.
         11    1    3    3    0    0  0.58891770542E+01 -0.80820116926E+01  0.39392517197E+01  0.10747977659E+02  0.51100000000E-03 0.  1.
<mgrwt>
<rscale>  0 0.20000331E+02</rscale>
<asrwt>0</asrwt>
<pdfrwt beam="1">  1        4 0.22696881E-02 0.20000331E+02</pdfrwt>
<pdfrwt beam="2">  1       -4 0.10428491E-02 0.20000331E+02</pdfrwt>
<totfact> 0.12923087E+06</totfact>
</mgrwt>
</event>
<event>
 5    1  0.1154861E-006  0.2000047E+02  0.7818608E-02  0.1745319E+00
         -4   -1    0    0    0  501 -0.00000000000E+00  0.00000000000E+00  0.15124365602E+02  0.15190879990E+02  0.14200000000E+01 0. -1.
          4   -1    0    0  501    0  0.00000000000E+00 -0.00000000000E+00 -0.64537799122E+01  0.66081521740E+01  0.14200000000E+01 0.  1.
       1023    2    1    2    0    0  0.00000000000E+00  0.00000000000E+00  0.86705856900E+01  0.21799032164E+02  0.20000468671E+02 0.  0.
        -11    1    3    3    0    0  0.14873769062E+00  0.99991238666E+01  0.43453714007E+01  0.10903524837E+02  0.51100000000E-03 0.  1.
         11    1    3    3    0    0 -0.14873769062E+00 -0.99991238666E+01  0.43252142893E+01  0.10895507327E+02  0.51100000000E-03 0. -1.
<mgrwt>
<rscale>  0 0.20000469E+02</rscale>
<asrwt>0</asrwt>
<pdfrwt beam="2">  1        4 0.10098805E-02 0.20000469E+02</pdfrwt>
<pdfrwt beam="1">  1       -4 0.23438168E-02 0.20000469E+02</pdfrwt>
<totfact> 0.12907292E+06</totfact>
</mgrwt>
</event>
<event>
 5    1  0.1154861E-006  0.2000188E+02  0.7818608E-02  0.1745291E+00
          4   -1    0    0  501    0  0.00000000000E+00  0.00000000000E+00  0.21610717354E+01  0.25858520928E+01  0.14200000000E+01 0.  1.
         -4   -1    0    0    0  501 -0.00000000000E+00 -0.00000000000E+00 -0.41702525995E+02  0.41726694984E+02  0.14200000000E+01 0. -1.
       1023    2    1    2    0    0  0.00000000000E+00  0.00000000000E+00 -0.39541454259E+02  0.44312547077E+02  0.20001880500E+02 0.  0.
        -11    1    3    3    0    0 -0.69769461623E+01  0.71652231299E+01 -0.19825236054E+02  0.22204913535E+02  0.51100000000E-03 0.  1.
         11    1    3    3    0    0  0.69769461623E+01 -0.71652231299E+01 -0.19716218205E+02  0.22107633542E+02  0.51100000000E-03 0. -1.
<mgrwt>
<rscale>  0 0.20001881E+02</rscale>
<asrwt>0</asrwt>
<pdfrwt beam="1">  1        4 0.36700717E-03 0.20001881E+02</pdfrwt>
<pdfrwt beam="2">  1       -4 0.64503072E-02 0.20001881E+02</pdfrwt>
<totfact> 0.11764078E+06</totfact>
</mgrwt>
</event>
<event>
 5    1  0.1165245E-006  0.2000173E+02  0.7818608E-02  0.1745294E+00
         -4   -1    0    0    0  501 -0.00000000000E+00  0.00000000000E+00  0.68309362201E+01  0.69769685139E+01  0.14200000000E+01 0. -1.
          4   -1    0    0  501    0  0.00000000000E+00 -0.00000000000E+00 -0.14305412337E+02  0.14375716404E+02  0.14200000000E+01 0.  1.
       1023    2    1    2    0    0  0.00000000000E+00  0.00000000000E+00 -0.74744761165E+01  0.21352684918E+02  0.20001733924E+02 0.  0.
        -11    1    3    3    0    0  0.41579209711E+01  0.90954899679E+01 -0.37019094419E+01  0.10663975728E+02  0.51100000000E-03 0.  1.
         11    1    3    3    0    0 -0.41579209711E+01 -0.90954899679E+01 -0.37725666746E+01  0.10688709189E+02  0.51100000000E-03 0. -1.
<mgrwt>
<rscale>  0 0.20001734E+02</rscale>
<asrwt>0</asrwt>
<pdfrwt beam="2">  1        4 0.22174739E-02 0.20001734E+02</pdfrwt>
<pdfrwt beam="1">  1       -4 0.10675545E-02 0.20001734E+02</pdfrwt>
<totfact> 0.12931709E+06</totfact>
</mgrwt>
</event>
<event>
 5    1  0.1187535E-006  0.2000176E+02  0.7818608E-02  0.1745293E+00
          4   -1    0    0  501    0  0.00000000000E+00  0.00000000000E+00  0.27885406011E+02  0.27921537716E+02  0.14200000000E+01 0.  1.
         -4   -1    0    0    0  501 -0.00000000000E+00 -0.00000000000E+00 -0.34061169291E+01  0.36902618518E+01  0.14200000000E+01 0. -1.
       1023    2    1    2    0    0  0.00000000000E+00  0.00000000000E+00  0.24479289082E+02  0.31611799567E+02  0.20001756871E+02 0.  0.
        -11    1    3    3    0    0 -0.32441680376E+01 -0.94599719385E+01  0.12308059746E+02  0.15858878595E+02  0.51100000000E-03 0. -1.
         11    1    3    3    0    0  0.32441680376E+01  0.94599719385E+01  0.12171229336E+02  0.15752920972E+02  0.51100000000E-03 0.  1.
<mgrwt>
<rscale>  0 0.20001757E+02</rscale>
<asrwt>0</asrwt>
<pdfrwt beam="1">  1        4 0.43146992E-02 0.20001757E+02</pdfrwt>
<pdfrwt beam="2">  1       -4 0.54865465E-03 0.20001757E+02</pdfrwt>
<totfact> 0.12370131E+06</totfact>
</mgrwt>
</event>
<event>
 5    1  0.1154861E-006  0.2000022E+02  0.7818608E-02  0.1745324E+00
         -4   -1    0    0    0  501 -0.00000000000E+00  0.00000000000E+00  0.14691083855E+02  0.14759550970E+02  0.14200000000E+01 0.  1.
          4   -1    0    0  501    0  0.00000000000E+00 -0.00000000000E+00 -0.66475468718E+01  0.67975200928E+01  0.14200000000E+01 0. -1.
       1023    2    1    2    0    0  0.00000000000E+00  0.00000000000E+00  0.80435369835E+01  0.21557071063E+02  0.20000220639E+02 0.  0.
        -11    1    3    3    0    0 -0.98633017499E+01 -0.16484572131E+01  0.40310120963E+01  0.10781984575E+02  0.51100000000E-03 0.  1.
         11    1    3    3    0    0  0.98633017499E+01  0.16484572131E+01  0.40125248872E+01  0.10775086488E+02  0.51100000000E-03 0. -1.
<mgrwt>
<rscale>  0 0.20000221E+02</rscale>
<asrwt>0</asrwt>
<pdfrwt beam="2">  1        4 0.10395026E-02 0.20000221E+02</pdfrwt>
<pdfrwt beam="1">  1       -4 0.22769698E-02 0.20000221E+02</pdfrwt>
<totfact> 0.12921736E+06</totfact>
</mgrwt>
</event>
<event>
 5    1  0.1154861E-006  0.2000966E+02  0.7818608E-02  0.1745136E+00
         -4   -1    0    0    0  501 -0.00000000000E+00  0.00000000000E+00  0.19405820330E+01  0.24046327426E+01  0.14200000000E+01 0. -1.
          4   -1    0    0  501    0  0.00000000000E+00 -0.00000000000E+00 -0.45595837233E+02  0.45617943542E+02  0.14200000000E+01 0.  1.
       1023    2    1    2    0    0  0.00000000000E+00  0.00000000000E+00 -0.43655255201E+02  0.48022576285E+02  0.20009660827E+02 0.  0.
        -11    1    3    3    0    0 -0.25840849376E+00 -0.99997012968E+01 -0.21373339509E+02  0.23598314410E+02  0.51100000000E-03 0. -1.
         11    1    3    3    0    0  0.25840849376E+00  0.99997012968E+01 -0.22281915691E+02  0.24424261874E+02  0.51100000000E-03 0.  1.
<mgrwt>
<rscale>  0 0.20009661E+02</rscale>
<asrwt>0</asrwt>
<pdfrwt beam="2">  1        4 0.70521402E-02 0.20009661E+02</pdfrwt>
<pdfrwt beam="1">  1       -4 0.33594781E-03 0.20009661E+02</pdfrwt>
<totfact> 0.11592884E+06</totfact>
</mgrwt>
</event>
<event>
 5    1  0.1154861E-006  0.2000016E+02  0.7818608E-02  0.1745325E+00
          4   -1    0    0  501    0  0.00000000000E+00  0.00000000000E+00  0.78349256845E+02  0.78362123811E+02  0.14200000000E+01 0.  1.
         -4   -1    0    0    0  501 -0.00000000000E+00 -0.00000000000E+00 -0.86433422864E+00  0.16623698923E+01  0.14200000000E+01 0. -1.
       1023    2    1    2    0    0  0.00000000000E+00  0.00000000000E+00  0.77484922616E+02  0.80024493703E+02  0.20000158989E+02 0.  0.
        -11    1    3    3    0    0  0.87147615987E+01  0.49045248705E+01  0.38792389927E+02  0.40060590990E+02  0.51100000000E-03 0. -1.
         11    1    3    3    0    0 -0.87147615987E+01 -0.49045248705E+01  0.38692532689E+02  0.39963902713E+02  0.51100000000E-03 0.  1.
<mgrwt>
<rscale>  0 0.20000159E+02</rscale>
<asrwt>0</asrwt>
<pdfrwt beam="1">  1        4 0.12116110E-01 0.20000159E+02</pdfrwt>
<pdfrwt beam="2">  1       -4 0.19535161E-03 0.20000159E+02</pdfrwt>
<totfact> 0.10410194E+06</totfact>
</mgrwt>
</event>
<event>
 5    1  0.1154861E-006  0.2000040E+02  0.7818608E-02  0.1745320E+00
          4   -1    0    0  501    0  0.00000000000E+00  0.00000000000E+00  0.87890763248E+02  0.87902233557E+02  0.14200000000E+01 0.  1.
         -4   -1    0    0    0  501 -0.00000000000E+00 -0.00000000000E+00 -0.67865451121E+00  0.15738398729E+01  0.14200000000E+01 0. -1.
       1023    2    1    2    0    0  0.00000000000E+00  0.00000000000E+00  0.87212108736E+02  0.89476073430E+02  0.20000395149E+02 0.  0.
        -11    1    3    3    0    0 -0.99091535744E+01  0.13463333464E+01  0.43622326666E+02  0.44753897283E+02  0.51100000000E-03 0. -1.
         11    1    3    3    0    0  0.99091535744E+01 -0.13463333464E+01  0.43589782071E+02  0.44722176146E+02  0.51100000000E-03 0.  1.
<mgrwt>
<rscale>  0 0.20000395E+02</rscale>
<asrwt>0</asrwt>
<pdfrwt beam="1">  1        4 0.13591400E-01 0.20000395E+02</pdfrwt>
<pdfrwt beam="2">  1       -4 0.17415111E-03 0.20000395E+02</pdfrwt>
<totfact> 0.10111294E+06</totfact>
</mgrwt>
</event>
<event>
 5    1  0.1154861E-006  0.2000049E+02  0.7818608E-02  0.1745318E+00
          4   -1    0    0  501    0  0.00000000000E+00  0.00000000000E+00  0.42424103289E+01  0.44737507082E+01  0.14200000000E+01 0.  1.
         -4   -1    0    0    0  501 -0.00000000000E+00 -0.00000000000E+00 -0.22692880375E+02  0.22737265001E+02  0.14200000000E+01 0. -1.
       1023    2    1    2    0    0  0.00000000000E+00  0.00000000000E+00 -0.18450470046E+02  0.27211015709E+02  0.20000488269E+02 0.  0.
        -11    1    3    3    0    0  0.24355271015E+01  0.96990221474E+01 -0.91634907831E+01  0.13563642080E+02  0.51100000000E-03 0.  1.
         11    1    3    3    0    0 -0.24355271015E+01 -0.96990221474E+01 -0.92869792630E+01  0.13647373629E+02  0.51100000000E-03 0. -1.
<mgrwt>
<rscale>  0 0.20000488E+02</rscale>
<asrwt>0</asrwt>
<pdfrwt beam="1">  1        4 0.67388814E-03 0.20000488E+02</pdfrwt>
<pdfrwt beam="2">  1       -4 0.35124219E-02 0.20000488E+02</pdfrwt>
<totfact> 0.12603427E+06</totfact>
</mgrwt>
</event>
<event>
 5    1  0.1154861E-006  0.2000060E+02  0.7818608E-02  0.1745316E+00
          4   -1    0    0  501    0  0.00000000000E+00  0.00000000000E+00  0.35096911832E+02  0.35125626260E+02  0.14200000000E+01 0. -1.
         -4   -1    0    0    0  501 -0.00000000000E+00 -0.00000000000E+00 -0.26406796471E+01  0.29982643310E+01  0.14200000000E+01 0.  1.
       1023    2    1    2    0    0  0.00000000000E+00  0.00000000000E+00  0.32456232185E+02  0.38123890591E+02  0.20000600645E+02 0.  0.
        -11    1    3    3    0    0  0.82829932049E+01 -0.56029148599E+01  0.16088369880E+02  0.18942974345E+02  0.51100000000E-03 0. -1.
         11    1    3    3    0    0 -0.82829932049E+01  0.56029148599E+01  0.16367862305E+02  0.19180916247E+02  0.51100000000E-03 0.  1.
<mgrwt>
<rscale>  0 0.20000601E+02</rscale>
<asrwt>0</asrwt>
<pdfrwt beam="1">  1        4 0.54292401E-02 0.20000601E+02</pdfrwt>
<pdfrwt beam="2">  1       -4 0.43597373E-03 0.20000601E+02</pdfrwt>
<totfact> 0.12050110E+06</totfact>
</mgrwt>
</event>
<event>
 5    1  0.1174144E-006  0.2000195E+02  0.7818608E-02  0.1745289E+00
          4   -1    0    0  501    0  0.00000000000E+00  0.00000000000E+00  0.23445387529E+02  0.23488350227E+02  0.14200000000E+01 0. -1.
         -4   -1    0    0    0  501 -0.00000000000E+00 -0.00000000000E+00 -0.40996051192E+01  0.43385668294E+01  0.14200000000E+01 0.  1.
       1023    2    1    2    0    0  0.00000000000E+00  0.00000000000E+00  0.19345782410E+02  0.27826917056E+02  0.20001950300E+02 0.  0.
        -11    1    3    3    0    0  0.52005303120E+01 -0.85423289900E+01  0.97438782803E+01  0.13962810043E+02  0.51100000000E-03 0. -1.
         11    1    3    3    0    0 -0.52005303120E+01  0.85423289900E+01  0.96019041296E+01  0.13864107013E+02  0.51100000000E-03 0.  1.
<mgrwt>
<rscale>  0 0.20001950E+02</rscale>
<asrwt>0</asrwt>
<pdfrwt beam="1">  1        4 0.36286692E-02 0.20001950E+02</pdfrwt>
<pdfrwt beam="2">  1       -4 0.65239498E-03 0.20001950E+02</pdfrwt>
<totfact> 0.12568344E+06</totfact>
</mgrwt>
</event>
<event>
 5    1  0.1154861E-006  0.2000246E+02  0.7818608E-02  0.1745279E+00
         -4   -1    0    0    0  501 -0.00000000000E+00  0.00000000000E+00  0.42944432889E+02  0.42967903325E+02  0.14200000000E+01 0.  1.
          4   -1    0    0  501    0  0.00000000000E+00 -0.00000000000E+00 -0.20862992107E+01  0.25236965738E+01  0.14200000000E+01 0. -1.
       1023    2    1    2    0    0  0.00000000000E+00  0.00000000000E+00  0.40858133678E+02  0.45491599899E+02  0.20002464190E+02 0.  0.
        -11    1    3    3    0    0 -0.22773979787E+01  0.97384660373E+01  0.20473450491E+02  0.22785662983E+02  0.51100000000E-03 0.  1.
         11    1    3    3    0    0  0.22773979787E+01 -0.97384660373E+01  0.20384683188E+02  0.22705936916E+02  0.51100000000E-03 0. -1.
<mgrwt>
<rscale>  0 0.20002464E+02</rscale>
<asrwt>0</asrwt>
<pdfrwt beam="2">  1        4 0.35642049E-03 0.20002464E+02</pdfrwt>
<pdfrwt beam="1">  1       -4 0.66422871E-02 0.20002464E+02</pdfrwt>
<totfact> 0.11711209E+06</totfact>
</mgrwt>
</event>
<event>
 4    1  0.1154861E-006  0.2003331E+02  0.7818608E-02  0.1744666E+00
          4   -1    0    0  501    0  0.00000000000E+00  0.00000000000E+00  0.15033526982E+01  0.20679626049E+01  0.14200000000E+01 0.  1.
         -4   -1    0    0    0  501 -0.00000000000E+00 -0.00000000000E+00 -0.55613372742E+02  0.55631498522E+02  0.14200000000E+01 0. -1.
        -11    1    1    2    0    0  0.36565478338E+01 -0.93249699788E+01 -0.26797739933E+02  0.28608465057E+02  0.51100000000E-03 0. -1.
         11    1    1    2    0    0 -0.36565478338E+01  0.93249699788E+01 -0.27312280111E+02  0.29090996069E+02  0.51100000000E-03 0.  1.
<mgrwt>
<rscale>  0 0.20033311E+02</rscale>
<asrwt>0</asrwt>
<pdfrwt beam="1">  1        4 0.27611090E-03 0.20033311E+02</pdfrwt>
<pdfrwt beam="2">  1       -4 0.86007280E-02 0.20033311E+02</pdfrwt>
<totfact> 0.11170488E+06</totfact>
</mgrwt>
</event>
<event>
 5    1  0.1154861E-006  0.2000009E+02  0.7818608E-02  0.1745326E+00
          4   -1    0    0  501    0  0.00000000000E+00  0.00000000000E+00  0.78447400441E+01  0.79722234263E+01  0.14200000000E+01 0. -1.
         -4   -1    0    0    0  501 -0.00000000000E+00 -0.00000000000E+00 -0.12476687469E+02  0.12557234178E+02  0.14200000000E+01 0.  1.
       1023    2    1    2    0    0  0.00000000000E+00  0.00000000000E+00 -0.46319474247E+01  0.20529457604E+02  0.20000092314E+02 0.  0.
        -11    1    3    3    0    0  0.93549731557E+01 -0.35334459198E+01 -0.23029870338E+01  0.10261798690E+02  0.51100000000E-03 0.  1.
         11    1    3    3    0    0 -0.93549731557E+01  0.35334459198E+01 -0.23289603910E+01  0.10267658914E+02  0.51100000000E-03 0. -1.
<mgrwt>
<rscale>  0 0.20000092E+02</rscale>
<asrwt>0</asrwt>
<pdfrwt beam="1">  1        4 0.12228854E-02 0.20000092E+02</pdfrwt>
<pdfrwt beam="2">  1       -4 0.19354927E-02 0.20000092E+02</pdfrwt>
<totfact> 0.12982456E+06</totfact>
</mgrwt>
</event>
<event>
 4    1  0.1154861E-006  0.2001777E+02  0.7818608E-02  0.1744975E+00
         -4   -1    0    0    0  501 -0.00000000000E+00  0.00000000000E+00  0.13486185913E+02  0.13560737829E+02  0.14200000000E+01 0. -1.
          4   -1    0    0  501    0  0.00000000000E+00 -0.00000000000E+00 -0.72642184965E+01  0.74017072601E+01  0.14200000000E+01 0.  1.
        -11    1    1    2    0    0 -0.23486090870E+01  0.97287622492E+01  0.32305039905E+01  0.10516697953E+02  0.51100000000E-03 0. -1.
         11    1    1    2    0    0  0.23486090870E+01 -0.97287622492E+01  0.29914634258E+01  0.10445747136E+02  0.51100000000E-03 0.  1.
<mgrwt>
<rscale>  0 0.20017773E+02</rscale>
<asrwt>0</asrwt>
<pdfrwt beam="2">  1        4 0.11338829E-02 0.20017773E+02</pdfrwt>
<pdfrwt beam="1">  1       -4 0.20911086E-02 0.20017773E+02</pdfrwt>
<totfact> 0.12933505E+06</totfact>
</mgrwt>
</event>
<event>
 5    1  0.1154861E-006  0.2000017E+02  0.7818608E-02  0.1745325E+00
         -4   -1    0    0    0  501 -0.00000000000E+00  0.00000000000E+00  0.23123374761E+01  0.27135409714E+01  0.14200000000E+01 0. -1.
          4   -1    0    0  501    0  0.00000000000E+00 -0.00000000000E+00 -0.39379690739E+02  0.39405284452E+02  0.14200000000E+01 0.  1.
       1023    2    1    2    0    0  0.00000000000E+00  0.00000000000E+00 -0.37067353263E+02  0.42118825423E+02  0.20000169426E+02 0.  0.
        -11    1    3    3    0    0  0.55641596369E+01  0.83091096860E+01 -0.18581596094E+02  0.21101585009E+02  0.51100000000E-03 0. -1.
         11    1    3    3    0    0 -0.55641596369E+01 -0.83091096860E+01 -0.18485757169E+02  0.21017240414E+02  0.51100000000E-03 0.  1.
<mgrwt>
<rscale>  0 0.20000169E+02</rscale>
<asrwt>0</asrwt>
<pdfrwt beam="2">  1        4 0.60912441E-02 0.20000169E+02</pdfrwt>
<pdfrwt beam="1">  1       -4 0.38857481E-03 0.20000169E+02</pdfrwt>
<totfact> 0.11864912E+06</totfact>
</mgrwt>
</event>
<event>
 5    1  0.1154861E-006  0.2000042E+02  0.7818608E-02  0.1745320E+00
          4   -1    0    0  501    0  0.00000000000E+00  0.00000000000E+00  0.35089912082E+01  0.37854219447E+01  0.14200000000E+01 0. -1.
         -4   -1    0    0    0  501 -0.00000000000E+00 -0.00000000000E+00 -0.27123696552E+02  0.27160841568E+02  0.14200000000E+01 0.  1.
       1023    2    1    2    0    0  0.00000000000E+00  0.00000000000E+00 -0.23614705344E+02  0.30946263512E+02  0.20000422918E+02 0.  0.
        -11    1    3    3    0    0 -0.71475513976E+01 -0.69940100566E+01 -0.11844010721E+02  0.15501105053E+02  0.51100000000E-03 0.  1.
         11    1    3    3    0    0  0.71475513976E+01  0.69940100566E+01 -0.11770694623E+02  0.15445158459E+02  0.51100000000E-03 0. -1.
<mgrwt>
<rscale>  0 0.20000423E+02</rscale>
<asrwt>0</asrwt>
<pdfrwt beam="1">  1        4 0.56396603E-03 0.20000423E+02</pdfrwt>
<pdfrwt beam="2">  1       -4 0.41969975E-02 0.20000423E+02</pdfrwt>
<totfact> 0.12406075E+06</totfact>
</mgrwt>
</event>
<event>
 5    1  0.1154861E-006  0.2000617E+02  0.7818608E-02  0.1745205E+00
         -4   -1    0    0    0  501 -0.00000000000E+00  0.00000000000E+00  0.13669899129E+02  0.13743454522E+02  0.14200000000E+01 0.  1.
          4   -1    0    0  501    0  0.00000000000E+00 -0.00000000000E+00 -0.71567182264E+01  0.72962329851E+01  0.14200000000E+01 0. -1.
       1023    2    1    2    0    0  0.00000000000E+00  0.00000000000E+00  0.65131809026E+01  0.21039687507E+02  0.20006172171E+02 0.  0.
        -11    1    3    3    0    0  0.87275999297E+01 -0.48833255551E+01  0.34768421672E+01  0.10588026290E+02  0.51100000000E-03 0. -1.
         11    1    3    3    0    0 -0.87275999297E+01  0.48833255551E+01  0.30363387355E+01  0.10451661217E+02  0.51100000000E-03 0.  1.
<mgrwt>
<rscale>  0 0.20006172E+02</rscale>
<asrwt>0</asrwt>
<pdfrwt beam="2">  1        4 0.11174236E-02 0.20006172E+02</pdfrwt>
<pdfrwt beam="1">  1       -4 0.21194514E-02 0.20006172E+02</pdfrwt>
<totfact> 0.12944256E+06</totfact>
</mgrwt>
</event>
<event>
 5    1  0.1154861E-006  0.2000039E+02  0.7818608E-02  0.1745320E+00
          4   -1    0    0  501    0  0.00000000000E+00  0.00000000000E+00  0.43699143272E+02  0.43722208575E+02  0.14200000000E+01 0.  1.
         -4   -1    0    0    0  501 -0.00000000000E+00 -0.00000000000E+00 -0.20421483032E+01  0.24873217911E+01  0.14200000000E+01 0. -1.
       1023    2    1    2    0    0  0.00000000000E+00  0.00000000000E+00  0.41656994969E+02  0.46209530366E+02  0.20000386668E+02 0.  0.
        -11    1    3    3    0    0  0.69715500815E+01 -0.71694669203E+01  0.20851600914E+02  0.23125592477E+02  0.51100000000E-03 0. -1.
         11    1    3    3    0    0 -0.69715500815E+01  0.71694669203E+01  0.20805394055E+02  0.23083937889E+02  0.51100000000E-03 0.  1.
<mgrwt>
<rscale>  0 0.20000387E+02</rscale>
<asrwt>0</asrwt>
<pdfrwt beam="1">  1        4 0.67589633E-02 0.20000387E+02</pdfrwt>
<pdfrwt beam="2">  1       -4 0.35019504E-03 0.20000387E+02</pdfrwt>
<totfact> 0.11682198E+06</totfact>
</mgrwt>
</event>
<event>
 4    1  0.1154861E-006  0.2009101E+02  0.7818608E-02  0.1743524E+00
         -4   -1    0    0    0  501 -0.00000000000E+00  0.00000000000E+00  0.98949088348E+01  0.99962803507E+01  0.14200000000E+01 0. -1.
          4   -1    0    0  501    0  0.00000000000E+00 -0.00000000000E+00 -0.99946028118E+01  0.10094973272E+02  0.14200000000E+01 0.  1.
        -11    1    1    2    0    0  0.92489049597E+01 -0.39102147226E+01 -0.33288919827E+00  0.10047031283E+02  0.51100000000E-03 0. -1.
         11    1    1    2    0    0 -0.92489049597E+01  0.39102147226E+01  0.23319522125E+00  0.10044222339E+02  0.51100000000E-03 0.  1.
<mgrwt>
<rscale>  0 0.20091006E+02</rscale>
<asrwt>0</asrwt>
<pdfrwt beam="2">  1        4 0.15531498E-02 0.20091006E+02</pdfrwt>
<pdfrwt beam="1">  1       -4 0.15378123E-02 0.20091006E+02</pdfrwt>
<totfact> 0.12888519E+06</totfact>
</mgrwt>
</event>
<event>
 5    1  0.1154861E-006  0.2000032E+02  0.7818608E-02  0.1745322E+00
          4   -1    0    0  501    0  0.00000000000E+00  0.00000000000E+00  0.68855116212E+01  0.70304103924E+01  0.14200000000E+01 0. -1.
         -4   -1    0    0    0  501 -0.00000000000E+00 -0.00000000000E+00 -0.14191782044E+02  0.14262646234E+02  0.14200000000E+01 0.  1.
       1023    2    1    2    0    0  0.00000000000E+00  0.00000000000E+00 -0.73062704230E+01  0.21293056626E+02  0.20000316822E+02 0.  0.
        -11    1    3    3    0    0 -0.77955829847E+01  0.62634999419E+01 -0.36265748809E+01  0.10637414687E+02  0.51100000000E-03 0.  1.
         11    1    3    3    0    0  0.77955829847E+01 -0.62634999419E+01 -0.36796955421E+01  0.10655641939E+02  0.51100000000E-03 0. -1.
<mgrwt>
<rscale>  0 0.20000317E+02</rscale>
<asrwt>0</asrwt>
<pdfrwt beam="1">  1        4 0.10759066E-02 0.20000317E+02</pdfrwt>
<pdfrwt beam="2">  1       -4 0.21999482E-02 0.20000317E+02</pdfrwt>
<totfact> 0.12937078E+06</totfact>
</mgrwt>
</event>
<event>
 5    1  0.1154861E-006  0.2000188E+02  0.7818608E-02  0.1745291E+00
         -4   -1    0    0    0  501 -0.00000000000E+00  0.00000000000E+00  0.44026699959E+02  0.44049593747E+02  0.14200000000E+01 0.  1.
          4   -1    0    0  501    0  0.00000000000E+00 -0.00000000000E+00 -0.20240119738E+01  0.24724531280E+01  0.14200000000E+01 0. -1.
       1023    2    1    2    0    0  0.00000000000E+00  0.00000000000E+00  0.42002687985E+02  0.46522046875E+02  0.20001876099E+02 0.  0.
        -11    1    3    3    0    0 -0.75140964303E+01 -0.65992278409E+01  0.21200181205E+02  0.23440544718E+02  0.51100000000E-03 0. -1.
         11    1    3    3    0    0  0.75140964303E+01  0.65992278409E+01  0.20802506780E+02  0.23081502158E+02  0.51100000000E-03 0.  1.
<mgrwt>
<rscale>  0 0.20001876E+02</rscale>
<asrwt>0</asrwt>
<pdfrwt beam="2">  1        4 0.34764301E-03 0.20001876E+02</pdfrwt>
<pdfrwt beam="1">  1       -4 0.68095946E-02 0.20001876E+02</pdfrwt>
<totfact> 0.11666817E+06</totfact>
</mgrwt>
</event>
<event>
 5    1  0.1154861E-006  0.2000749E+02  0.7818608E-02  0.1745179E+00
          4   -1    0    0  501    0  0.00000000000E+00  0.00000000000E+00  0.44240114175E+01  0.46463186527E+01  0.14200000000E+01 0.  1.
         -4   -1    0    0    0  501 -0.00000000000E+00 -0.00000000000E+00 -0.21820481761E+02  0.21866637243E+02  0.14200000000E+01 0. -1.
       1023    2    1    2    0    0  0.00000000000E+00  0.00000000000E+00 -0.17396470344E+02  0.26512955895E+02  0.20007489845E+02 0.  0.
        -11    1    3    3    0    0  0.99307823682E+01  0.12052440413E+01 -0.86410757333E+01  0.13218972794E+02  0.51100000000E-03 0. -1.
         11    1    3    3    0    0 -0.99307823682E+01 -0.12052440413E+01 -0.87553946105E+01  0.13293983101E+02  0.51100000000E-03 0.  1.
<mgrwt>
<rscale>  0 0.20007490E+02</rscale>
<asrwt>0</asrwt>
<pdfrwt beam="1">  1        4 0.70126813E-03 0.20007490E+02</pdfrwt>
<pdfrwt beam="2">  1       -4 0.33776481E-02 0.20007490E+02</pdfrwt>
<totfact> 0.12632401E+06</totfact>
</mgrwt>
</event>
<event>
 5    1  0.1154861E-006  0.2000022E+02  0.7818608E-02  0.1745324E+00
          4   -1    0    0  501    0  0.00000000000E+00  0.00000000000E+00  0.78232341333E+01  0.79510623381E+01  0.14200000000E+01 0.  1.
         -4   -1    0    0    0  501 -0.00000000000E+00 -0.00000000000E+00 -0.12510814273E+02  0.12591142671E+02  0.14200000000E+01 0. -1.
       1023    2    1    2    0    0  0.00000000000E+00  0.00000000000E+00 -0.46875801396E+01  0.20542205009E+02  0.20000219476E+02 0.  0.
        -11    1    3    3    0    0  0.75231276365E+01  0.65880698778E+01 -0.23906370474E+01  0.10281792641E+02  0.51100000000E-03 0. -1.
         11    1    3    3    0    0 -0.75231276365E+01 -0.65880698778E+01 -0.22969430922E+01  0.10260412369E+02  0.51100000000E-03 0.  1.
<mgrwt>
<rscale>  0 0.20000219E+02</rscale>
<asrwt>0</asrwt>
<pdfrwt beam="1">  1        4 0.12195865E-02 0.20000219E+02</pdfrwt>
<pdfrwt beam="2">  1       -4 0.19407527E-02 0.20000219E+02</pdfrwt>
<totfact> 0.12981533E+06</totfact>
</mgrwt>
</event>
<event>
 5    1  0.1154861E-006  0.2000324E+02  0.7818608E-02  0.1745264E+00
          4   -1    0    0  501    0  0.00000000000E+00  0.00000000000E+00  0.46221986128E+01  0.48354027770E+01  0.14200000000E+01 0.  1.
         -4   -1    0    0    0  501 -0.00000000000E+00 -0.00000000000E+00 -0.20916049620E+02  0.20964196424E+02  0.14200000000E+01 0. -1.
       1023    2    1    2    0    0  0.00000000000E+00  0.00000000000E+00 -0.16293851008E+02  0.25799599201E+02  0.20003243194E+02 0.  0.
        -11    1    3    3    0    0 -0.92211306696E+01  0.38714135486E+01 -0.83066729885E+01  0.13000688831E+02  0.51100000000E-03 0.  1.
         11    1    3    3    0    0  0.92211306696E+01 -0.38714135486E+01 -0.79871780190E+01  0.12798910370E+02  0.51100000000E-03 0. -1.
<mgrwt>
<rscale>  0 0.20003243E+02</rscale>
<asrwt>0</asrwt>
<pdfrwt beam="1">  1        4 0.73121141E-03 0.20003243E+02</pdfrwt>
<pdfrwt beam="2">  1       -4 0.32379576E-02 0.20003243E+02</pdfrwt>
<totfact> 0.12677030E+06</totfact>
</mgrwt>
</event>
<event>
 5    1  0.1154861E-006  0.2000110E+02  0.7818608E-02  0.1745306E+00
          4   -1    0    0  501    0  0.00000000000E+00  0.00000000000E+00  0.98165036651E+02  0.98175306573E+02  0.14200000000E+01 0.  1.
         -4   -1    0    0    0  501 -0.00000000000E+00 -0.00000000000E+00 -0.50858177554E+00  0.15083286851E+01  0.14200000000E+01 0. -1.
       1023    2    1    2    0    0  0.00000000000E+00  0.00000000000E+00  0.97656454875E+02  0.99683635258E+02  0.20001098955E+02 0.  0.
        -11    1    3    3    0    0 -0.48906058228E+01 -0.87229223074E+01  0.49126875352E+02  0.50134392198E+02  0.51100000000E-03 0. -1.
         11    1    3    3    0    0  0.48906058228E+01  0.87229223074E+01  0.48529579523E+02  0.49549243060E+02  0.51100000000E-03 0.  1.
<mgrwt>
<rscale>  0 0.20001099E+02</rscale>
<asrwt>0</asrwt>
<pdfrwt beam="1">  1        4 0.15180007E-01 0.20001099E+02</pdfrwt>
<pdfrwt beam="2">  1       -4 0.15593696E-03 0.20001099E+02</pdfrwt>
<totfact> 0.98091911E+05</totfact>
</mgrwt>
</event>
<event>
 5    1  0.1154861E-006  0.2000061E+02  0.7818608E-02  0.1745316E+00
          4   -1    0    0  501    0  0.00000000000E+00  0.00000000000E+00  0.68319852837E+02  0.68334608301E+02  0.14200000000E+01 0. -1.
         -4   -1    0    0    0  501 -0.00000000000E+00 -0.00000000000E+00 -0.11009077318E+01  0.17967742857E+01  0.14200000000E+01 0.  1.
       1023    2    1    2    0    0  0.00000000000E+00  0.00000000000E+00  0.67218945105E+02  0.70131382586E+02  0.20000606053E+02 0.  0.
        -11    1    3    3    0    0  0.55213266385E+01  0.83378264292E+01  0.33752463470E+02  0.35202744041E+02  0.51100000000E-03 0.  1.
         11    1    3    3    0    0 -0.55213266385E+01 -0.83378264292E+01  0.33466481634E+02  0.34928638546E+02  0.51100000000E-03 0. -1.
<mgrwt>
<rscale>  0 0.20000606E+02</rscale>
<asrwt>0</asrwt>
<pdfrwt beam="1">  1        4 0.10565411E-01 0.20000606E+02</pdfrwt>
<pdfrwt beam="2">  1       -4 0.22403364E-03 0.20000606E+02</pdfrwt>
<totfact> 0.10745511E+06</totfact>
</mgrwt>
</event>
<event>
 5    1  0.1154861E-006  0.2000031E+02  0.7818608E-02  0.1745322E+00
         -4   -1    0    0    0  501 -0.00000000000E+00  0.00000000000E+00  0.28706361060E+02  0.28741460737E+02  0.14200000000E+01 0.  1.
          4   -1    0    0  501    0  0.00000000000E+00 -0.00000000000E+00 -0.33000692174E+01  0.35926114234E+01  0.14200000000E+01 0. -1.
       1023    2    1    2    0    0  0.00000000000E+00  0.00000000000E+00  0.25406291843E+02  0.32334072161E+02  0.20000313930E+02 0.  0.
        -11    1    3    3    0    0 -0.99364501795E+00  0.99506684647E+01  0.12699270047E+02  0.16163990637E+02  0.51100000000E-03 0.  1.
         11    1    3    3    0    0  0.99364501795E+00 -0.99506684647E+01  0.12707021796E+02  0.16170081524E+02  0.51100000000E-03 0. -1.
<mgrwt>
<rscale>  0 0.20000314E+02</rscale>
<asrwt>0</asrwt>
<pdfrwt beam="2">  1        4 0.53290619E-03 0.20000314E+02</pdfrwt>
<pdfrwt beam="1">  1       -4 0.44415664E-02 0.20000314E+02</pdfrwt>
<totfact> 0.12335044E+06</totfact>
</mgrwt>
</event>
<event>
 5    1  0.1182178E-006  0.2000135E+02  0.7818608E-02  0.1745301E+00
          4   -1    0    0  501    0  0.00000000000E+00  0.00000000000E+00  0.19218383360E+01  0.23895318767E+01  0.14200000000E+01 0. -1.
         -4   -1    0    0    0  501 -0.00000000000E+00 -0.00000000000E+00 -0.45915360016E+02  0.45937312562E+02  0.14200000000E+01 0.  1.
       1023    2    1    2    0    0  0.00000000000E+00  0.00000000000E+00 -0.43993521680E+02  0.48326844438E+02  0.20001348544E+02 0.  0.
        -11    1    3    3    0    0  0.93628118847E+01  0.35125531319E+01 -0.22274461104E+02  0.24416221936E+02  0.51100000000E-03 0. -1.
         11    1    3    3    0    0 -0.93628118847E+01 -0.35125531319E+01 -0.21719060576E+02  0.23910622502E+02  0.51100000000E-03 0.  1.
<mgrwt>
<rscale>  0 0.20001349E+02</rscale>
<asrwt>0</asrwt>
<pdfrwt beam="1">  1        4 0.33333255E-03 0.20001349E+02</pdfrwt>
<pdfrwt beam="2">  1       -4 0.71015659E-02 0.20001349E+02</pdfrwt>
<totfact> 0.11589586E+06</totfact>
</mgrwt>
</event>
<event>
 5    1  0.1154861E-006  0.2000731E+02  0.7818608E-02  0.1745183E+00
          4   -1    0    0  501    0  0.00000000000E+00  0.00000000000E+00  0.66024338148E+02  0.66039606509E+02  0.14200000000E+01 0.  1.
         -4   -1    0    0    0  501 -0.00000000000E+00 -0.00000000000E+00 -0.11641992927E+01  0.18362352772E+01  0.14200000000E+01 0. -1.
       1023    2    1    2    0    0  0.00000000000E+00  0.00000000000E+00  0.64860138855E+02  0.67875841786E+02  0.20007305812E+02 0.  0.
        -11    1    3    3    0    0 -0.41349646703E+01  0.91073481091E+01  0.31829397849E+02  0.33363936969E+02  0.51100000000E-03 0. -1.
         11    1    3    3    0    0  0.41349646703E+01 -0.91073481091E+01  0.33030741007E+02  0.34511904817E+02  0.51100000000E-03 0.  1.
<mgrwt>
<rscale>  0 0.20007306E+02</rscale>
<asrwt>0</asrwt>
<pdfrwt beam="1">  1        4 0.10210460E-01 0.20007306E+02</pdfrwt>
<pdfrwt beam="2">  1       -4 0.23197715E-03 0.20007306E+02</pdfrwt>
<totfact> 0.10818501E+06</totfact>
</mgrwt>
</event>
<event>
 5    1  0.1154861E-006  0.2000031E+02  0.7818608E-02  0.1745322E+00
         -4   -1    0    0    0  501 -0.00000000000E+00  0.00000000000E+00  0.19129902869E+01  0.23824214232E+01  0.14200000000E+01 0.  1.
          4   -1    0    0  501    0  0.00000000000E+00 -0.00000000000E+00 -0.46081175564E+02  0.46103049155E+02  0.14200000000E+01 0. -1.
       1023    2    1    2    0    0  0.00000000000E+00  0.00000000000E+00 -0.44168185277E+02  0.48485470578E+02  0.20000306660E+02 0.  0.
        -11    1    3    3    0    0 -0.69271676461E+01  0.72122955739E+01 -0.22049187105E+02  0.24210937844E+02  0.51100000000E-03 0.  1.
         11    1    3    3    0    0  0.69271676461E+01 -0.72122955739E+01 -0.22118998172E+02  0.24274532734E+02  0.51100000000E-03 0. -1.
<mgrwt>
<rscale>  0 0.20000307E+02</rscale>
<asrwt>0</asrwt>
<pdfrwt beam="2">  1        4 0.71272035E-02 0.20000307E+02</pdfrwt>
<pdfrwt beam="1">  1       -4 0.33209890E-03 0.20000307E+02</pdfrwt>
<totfact> 0.11584028E+06</totfact>
</mgrwt>
</event>
<event>
 5    1  0.1201172E-006  0.2000098E+02  0.7818608E-02  0.1745309E+00
          4   -1    0    0  501    0  0.00000000000E+00  0.00000000000E+00  0.40393449997E+01  0.42816711722E+01  0.14200000000E+01 0.  1.
         -4   -1    0    0    0  501 -0.00000000000E+00 -0.00000000000E+00 -0.23773751820E+02  0.23816122178E+02  0.14200000000E+01 0. -1.
       1023    2    1    2    0    0  0.00000000000E+00  0.00000000000E+00 -0.19734406820E+02  0.28097793350E+02  0.20000979441E+02 0.  0.
        -11    1    3    3    0    0 -0.50372749757E+01 -0.86391367629E+01 -0.98234234491E+01  0.14018147942E+02  0.51100000000E-03 0. -1.
         11    1    3    3    0    0  0.50372749757E+01  0.86391367629E+01 -0.99109833714E+01  0.14079645409E+02  0.51100000000E-03 0.  1.
<mgrwt>
<rscale>  0 0.20000979E+02</rscale>
<asrwt>0</asrwt>
<pdfrwt beam="1">  1        4 0.64333744E-03 0.20000979E+02</pdfrwt>
<pdfrwt beam="2">  1       -4 0.36793999E-02 0.20000979E+02</pdfrwt>
<totfact> 0.12555062E+06</totfact>
</mgrwt>
</event>
<event>
 5    1  0.1154861E-006  0.2000029E+02  0.7818608E-02  0.1745322E+00
          4   -1    0    0  501    0  0.00000000000E+00  0.00000000000E+00  0.29413717596E+01  0.32662008248E+01  0.14200000000E+01 0. -1.
         -4   -1    0    0    0  501 -0.00000000000E+00 -0.00000000000E+00 -0.31878194663E+02  0.31909805624E+02  0.14200000000E+01 0.  1.
       1023    2    1    2    0    0  0.00000000000E+00  0.00000000000E+00 -0.28936822904E+02  0.35176006449E+02  0.20000292747E+02 0.  0.
        -11    1    3    3    0    0  0.23645200576E+01 -0.97165781770E+01 -0.14452616021E+02  0.17575009437E+02  0.51100000000E-03 0.  1.
         11    1    3    3    0    0 -0.23645200576E+01  0.97165781770E+01 -0.14484206882E+02  0.17600997013E+02  0.51100000000E-03 0. -1.
<mgrwt>
<rscale>  0 0.20000293E+02</rscale>
<asrwt>0</asrwt>
<pdfrwt beam="1">  1        4 0.47993722E-03 0.20000293E+02</pdfrwt>
<pdfrwt beam="2">  1       -4 0.49317559E-02 0.20000293E+02</pdfrwt>
<totfact> 0.12192964E+06</totfact>
</mgrwt>
</event>
<event>
 5    1  0.1154861E-006  0.2000095E+02  0.7818608E-02  0.1745309E+00
          4   -1    0    0  501    0  0.00000000000E+00  0.00000000000E+00  0.39135663605E+02  0.39161416800E+02  0.14200000000E+01 0. -1.
         -4   -1    0    0    0  501 -0.00000000000E+00 -0.00000000000E+00 -0.23294534794E+01  0.27281410361E+01  0.14200000000E+01 0.  1.
       1023    2    1    2    0    0  0.00000000000E+00  0.00000000000E+00  0.36806210125E+02  0.41889557836E+02  0.20000948775E+02 0.  0.
        -11    1    3    3    0    0 -0.65206751533E+01 -0.75821700328E+01  0.18468698095E+02  0.21002412158E+02  0.51100000000E-03 0. -1.
         11    1    3    3    0    0  0.65206751533E+01  0.75821700328E+01  0.18337512031E+02  0.20887145678E+02  0.51100000000E-03 0.  1.
<mgrwt>
<rscale>  0 0.20000949E+02</rscale>
<asrwt>0</asrwt>
<pdfrwt beam="1">  1        4 0.60535207E-02 0.20000949E+02</pdfrwt>
<pdfrwt beam="2">  1       -4 0.39102674E-03 0.20000949E+02</pdfrwt>
<totfact> 0.11874418E+06</totfact>
</mgrwt>
</event>
<event>
 5    1  0.1154861E-006  0.2000021E+02  0.7818608E-02  0.1745324E+00
          4   -1    0    0  501    0  0.00000000000E+00  0.00000000000E+00  0.12306442233E+01  0.18790649814E+01  0.14200000000E+01 0. -1.
         -4   -1    0    0    0  501 -0.00000000000E+00 -0.00000000000E+00 -0.63658073952E+02  0.63673909722E+02  0.14200000000E+01 0.  1.
       1023    2    1    2    0    0  0.00000000000E+00  0.00000000000E+00 -0.62427429729E+02  0.65552974704E+02  0.20000212747E+02 0.  0.
        -11    1    3    3    0    0  0.12054021087E+01  0.99271779704E+01 -0.31159806171E+02  0.32725149007E+02  0.51100000000E-03 0. -1.
         11    1    3    3    0    0 -0.12054021087E+01 -0.99271779704E+01 -0.31267623558E+02  0.32827825696E+02  0.51100000000E-03 0.  1.
<mgrwt>
<rscale>  0 0.20000213E+02</rscale>
<asrwt>0</asrwt>
<pdfrwt beam="1">  1        4 0.24042659E-03 0.20000213E+02</pdfrwt>
<pdfrwt beam="2">  1       -4 0.98446445E-02 0.20000213E+02</pdfrwt>
<totfact> 0.10910440E+06</totfact>
</mgrwt>
</event>
<event>
 5    1  0.1154861E-006  0.2000442E+02  0.7818608E-02  0.1745240E+00
         -4   -1    0    0    0  501 -0.00000000000E+00  0.00000000000E+00  0.12026142924E+02  0.12109686769E+02  0.14200000000E+01 0.  1.
          4   -1    0    0  501    0  0.00000000000E+00 -0.00000000000E+00 -0.81449144638E+01  0.82677706562E+01  0.14200000000E+01 0. -1.
       1023    2    1    2    0    0  0.00000000000E+00  0.00000000000E+00  0.38812284604E+01  0.20377457425E+02  0.20004420430E+02 0.  0.
        -11    1    3    3    0    0  0.95949773648E+01  0.28224967067E+01  0.20617032714E+01  0.10211792151E+02  0.51100000000E-03 0.  1.
         11    1    3    3    0    0 -0.95949773648E+01 -0.28224967067E+01  0.18195251890E+01  0.10165665274E+02  0.51100000000E-03 0. -1.
<mgrwt>
<rscale>  0 0.20004420E+02</rscale>
<asrwt>0</asrwt>
<pdfrwt beam="2">  1        4 0.12689407E-02 0.20004420E+02</pdfrwt>
<pdfrwt beam="1">  1       -4 0.18660527E-02 0.20004420E+02</pdfrwt>
<totfact> 0.12985727E+06</totfact>
</mgrwt>
</event>
<event>
 4    1  0.1154861E-006  0.2007543E+02  0.7818608E-02  0.1743832E+00
          4   -1    0    0  501    0  0.00000000000E+00  0.00000000000E+00  0.51861305944E+01  0.53770206009E+01  0.14200000000E+01 0.  1.
         -4   -1    0    0    0  501 -0.00000000000E+00 -0.00000000000E+00 -0.18858770778E+02  0.18912155754E+02  0.14200000000E+01 0. -1.
        -11    1    1    2    0    0  0.33956826075E+01 -0.94137976410E+01 -0.77777890441E+01  0.12674551237E+02  0.51100000000E-03 0. -1.
         11    1    1    2    0    0 -0.33956826075E+01  0.94137976410E+01 -0.58948511395E+01  0.11614625117E+02  0.51100000000E-03 0.  1.
<mgrwt>
<rscale>  0 0.20075433E+02</rscale>
<asrwt>0</asrwt>
<pdfrwt beam="1">  1        4 0.81665664E-03 0.20075433E+02</pdfrwt>
<pdfrwt beam="2">  1       -4 0.29201397E-02 0.20075433E+02</pdfrwt>
<totfact> 0.12667902E+06</totfact>
</mgrwt>
</event>
<event>
 5    1  0.1154861E-006  0.2000612E+02  0.7818608E-02  0.1745206E+00
         -4   -1    0    0    0  501 -0.00000000000E+00  0.00000000000E+00  0.11819614063E+02  0.11904607369E+02  0.14200000000E+01 0.  1.
          4   -1    0    0  501    0  0.00000000000E+00 -0.00000000000E+00 -0.82897872234E+01  0.84105274632E+01  0.14200000000E+01 0. -1.
       1023    2    1    2    0    0  0.00000000000E+00  0.00000000000E+00  0.35298268397E+01  0.20315134832E+02  0.20006124705E+02 0.  0.
        -11    1    3    3    0    0  0.38576230201E+01 -0.92292625704E+01  0.17377949447E+01  0.10152855485E+02  0.51100000000E-03 0. -1.
         11    1    3    3    0    0 -0.38576230201E+01  0.92292625704E+01  0.17920318950E+01  0.10162279347E+02  0.51100000000E-03 0.  1.
<mgrwt>
<rscale>  0 0.20006125E+02</rscale>
<asrwt>0</asrwt>
<pdfrwt beam="2">  1        4 0.12911775E-02 0.20006125E+02</pdfrwt>
<pdfrwt beam="1">  1       -4 0.18342278E-02 0.20006125E+02</pdfrwt>
<totfact> 0.12987169E+06</totfact>
</mgrwt>
</event>
<event>
 5    1  0.1154861E-006  0.2000607E+02  0.7818608E-02  0.1745207E+00
          4   -1    0    0  501    0  0.00000000000E+00  0.00000000000E+00  0.81897774815E+02  0.81910084359E+02  0.14200000000E+01 0.  1.
         -4   -1    0    0    0  501 -0.00000000000E+00 -0.00000000000E+00 -0.79250474972E+00  0.16261807336E+01  0.14200000000E+01 0. -1.
       1023    2    1    2    0    0  0.00000000000E+00  0.00000000000E+00  0.81105270065E+02  0.83536265092E+02  0.20006067910E+02 0.  0.
        -11    1    3    3    0    0  0.90318814534E+01  0.42924783651E+01  0.39526138819E+02  0.40771508475E+02  0.51100000000E-03 0.  1.
         11    1    3    3    0    0 -0.90318814534E+01 -0.42924783651E+01  0.41579131246E+02  0.42764756617E+02  0.51100000000E-03 0. -1.
<mgrwt>
<rscale>  0 0.20006068E+02</rscale>
<asrwt>0</asrwt>
<pdfrwt beam="1">  1        4 0.12664739E-01 0.20006068E+02</pdfrwt>
<pdfrwt beam="2">  1       -4 0.18699953E-03 0.20006068E+02</pdfrwt>
<totfact> 0.10290821E+06</totfact>
</mgrwt>
</event>
<event>
 5    1  0.1154861E-006  0.2000074E+02  0.7818608E-02  0.1745313E+00
          4   -1    0    0  501    0  0.00000000000E+00  0.00000000000E+00  0.44602139581E+02  0.44624738152E+02  0.14200000000E+01 0.  1.
         -4   -1    0    0    0  501 -0.00000000000E+00 -0.00000000000E+00 -0.19918113574E+01  0.24461628081E+01  0.14200000000E+01 0. -1.
       1023    2    1    2    0    0  0.00000000000E+00  0.00000000000E+00  0.42610328223E+02  0.47070900961E+02  0.20000741135E+02 0.  0.
        -11    1    3    3    0    0  0.35245292019E+01  0.93586143005E+01  0.21215748120E+02  0.23454507803E+02  0.51100000000E-03 0. -1.
         11    1    3    3    0    0 -0.35245292019E+01 -0.93586143005E+01  0.21394580103E+02  0.23616393157E+02  0.51100000000E-03 0.  1.
<mgrwt>
<rscale>  0 0.20000741E+02</rscale>
<asrwt>0</asrwt>
<pdfrwt beam="1">  1        4 0.68985562E-02 0.20000741E+02</pdfrwt>
<pdfrwt beam="2">  1       -4 0.34312098E-03 0.20000741E+02</pdfrwt>
<totfact> 0.11644327E+06</totfact>
</mgrwt>
</event>
<event>
 5    1  0.1154861E-006  0.2000022E+02  0.7818608E-02  0.1745324E+00
         -4   -1    0    0    0  501 -0.00000000000E+00  0.00000000000E+00  0.29943629067E+01  0.33140019941E+01  0.14200000000E+01 0.  1.
          4   -1    0    0  501    0  0.00000000000E+00 -0.00000000000E+00 -0.31368107106E+02  0.31400231583E+02  0.14200000000E+01 0. -1.
       1023    2    1    2    0    0  0.00000000000E+00  0.00000000000E+00 -0.28373744200E+02  0.34714233577E+02  0.20000216322E+02 0.  0.
        -11    1    3    3    0    0 -0.99140955332E+01  0.13080817284E+01 -0.14113336943E+02  0.17297012689E+02  0.51100000000E-03 0.  1.
         11    1    3    3    0    0  0.99140955332E+01 -0.13080817284E+01 -0.14260407257E+02  0.17417220887E+02  0.51100000000E-03 0. -1.
<mgrwt>
<rscale>  0 0.20000216E+02</rscale>
<asrwt>0</asrwt>
<pdfrwt beam="2">  1        4 0.48529212E-02 0.20000216E+02</pdfrwt>
<pdfrwt beam="1">  1       -4 0.48772997E-03 0.20000216E+02</pdfrwt>
<totfact> 0.12215823E+06</totfact>
</mgrwt>
</event>
<event>
 5    1  0.1154861E-006  0.2000214E+02  0.7818608E-02  0.1745286E+00
         -4   -1    0    0    0  501 -0.00000000000E+00  0.00000000000E+00  0.54383416460E+02  0.54401952041E+02  0.14200000000E+01 0. -1.
          4   -1    0    0  501    0  0.00000000000E+00 -0.00000000000E+00 -0.15433593330E+01  0.20972262708E+01  0.14200000000E+01 0.  1.
       1023    2    1    2    0    0  0.00000000000E+00  0.00000000000E+00  0.52840057127E+02  0.56499178312E+02  0.20002137704E+02 0.  0.
        -11    1    3    3    0    0 -0.75505873763E+01  0.65577853371E+01  0.26628741143E+02  0.28444784643E+02  0.51100000000E-03 0. -1.
         11    1    3    3    0    0  0.75505873763E+01 -0.65577853371E+01  0.26211315984E+02  0.28054393669E+02  0.51100000000E-03 0.  1.
<mgrwt>
<rscale>  0 0.20002138E+02</rscale>
<asrwt>0</asrwt>
<pdfrwt beam="2">  1        4 0.28147083E-03 0.20002138E+02</pdfrwt>
<pdfrwt beam="1">  1       -4 0.84107115E-02 0.20002138E+02</pdfrwt>
<totfact> 0.11252779E+06</totfact>
</mgrwt>
</event>
<event>
 5    1  0.1154861E-006  0.2000005E+02  0.7818608E-02  0.1745327E+00
          4   -1    0    0  501    0  0.00000000000E+00  0.00000000000E+00  0.12282586922E+01  0.18775035060E+01  0.14200000000E+01 0. -1.
         -4   -1    0    0    0  501 -0.00000000000E+00 -0.00000000000E+00 -0.63737932922E+02  0.63753748856E+02  0.14200000000E+01 0.  1.
       1023    2    1    2    0    0  0.00000000000E+00  0.00000000000E+00 -0.62509674230E+02  0.65631252362E+02  0.20000047856E+02 0.  0.
        -11    1    3    3    0    0  0.26879729464E+01  0.96319692300E+01 -0.31324332945E+02  0.32881816624E+02  0.51100000000E-03 0.  1.
         11    1    3    3    0    0 -0.26879729464E+01 -0.96319692300E+01 -0.31185341285E+02  0.32749435738E+02  0.51100000000E-03 0. -1.
<mgrwt>
<rscale>  0 0.20000048E+02</rscale>
<asrwt>0</asrwt>
<pdfrwt beam="1">  1        4 0.24012145E-03 0.20000048E+02</pdfrwt>
<pdfrwt beam="2">  1       -4 0.98569923E-02 0.20000048E+02</pdfrwt>
<totfact> 0.10907756E+06</totfact>
</mgrwt>
</event>
<event>
 5    1  0.1154861E-006  0.2000079E+02  0.7818608E-02  0.1745312E+00
          4   -1    0    0  501    0  0.00000000000E+00  0.00000000000E+00  0.90288149527E+00  0.16827343803E+01  0.14200000000E+01 0. -1.
         -4   -1    0    0    0  501 -0.00000000000E+00 -0.00000000000E+00 -0.76568712292E+02  0.76581878418E+02  0.14200000000E+01 0.  1.
       1023    2    1    2    0    0  0.00000000000E+00  0.00000000000E+00 -0.75665830797E+02  0.78264612799E+02  0.20000791643E+02 0.  0.
        -11    1    3    3    0    0  0.64061381914E+01 -0.76790401439E+01 -0.37673856583E+02  0.38978529143E+02  0.51100000000E-03 0. -1.
         11    1    3    3    0    0 -0.64061381914E+01  0.76790401439E+01 -0.37991974214E+02  0.39286083655E+02  0.51100000000E-03 0.  1.
<mgrwt>
<rscale>  0 0.20000792E+02</rscale>
<asrwt>0</asrwt>
<pdfrwt beam="1">  1        4 0.19990637E-03 0.20000792E+02</pdfrwt>
<pdfrwt beam="2">  1       -4 0.11840800E-01 0.20000792E+02</pdfrwt>
<totfact> 0.10467424E+06</totfact>
</mgrwt>
</event>
<event>
 5    1  0.1154861E-006  0.2000040E+02  0.7818608E-02  0.1745320E+00
          4   -1    0    0  501    0  0.00000000000E+00  0.00000000000E+00  0.33956689225E+02  0.33986367018E+02  0.14200000000E+01 0. -1.
         -4   -1    0    0    0  501 -0.00000000000E+00 -0.00000000000E+00 -0.27410143400E+01  0.30869984794E+01  0.14200000000E+01 0. -1.
       1023    2    1    2    0    0  0.00000000000E+00  0.00000000000E+00  0.31215674885E+02  0.37073365498E+02  0.20000401766E+02 0.  0.
        -11    1    3    3    0    0 -0.91414599696E+01  0.40542254649E+01  0.15665952453E+02  0.18585615433E+02  0.51100000000E-03 0. -1.
         11    1    3    3    0    0  0.91414599696E+01 -0.40542254649E+01  0.15549722431E+02  0.18487750064E+02  0.51100000000E-03 0.  1.
<mgrwt>
<rscale>  0 0.20000402E+02</rscale>
<asrwt>0</asrwt>
<pdfrwt beam="1">  1        4 0.52530028E-02 0.20000402E+02</pdfrwt>
<pdfrwt beam="2">  1       -4 0.45059161E-03 0.20000402E+02</pdfrwt>
<totfact> 0.12100574E+06</totfact>
</mgrwt>
</event>
<event>
 5    1  0.1154861E-006  0.2000131E+02  0.7818608E-02  0.1745302E+00
         -4   -1    0    0    0  501 -0.00000000000E+00  0.00000000000E+00  0.41796851248E+00  0.14802356831E+01  0.14200000000E+01 0.  1.
          4   -1    0    0  501    0  0.00000000000E+00 -0.00000000000E+00 -0.10430674415E+03  0.10431640942E+03  0.14200000000E+01 0. -1.
       1023    2    1    2    0    0  0.00000000000E+00  0.00000000000E+00 -0.10388877563E+03  0.10579664510E+03  0.20001310269E+02 0.  0.
        -11    1    3    3    0    0 -0.92443981379E+01 -0.38148509861E+01 -0.52121240690E+02  0.53071986173E+02  0.51100000000E-03 0. -1.
         11    1    3    3    0    0  0.92443981379E+01  0.38148509861E+01 -0.51767534944E+02  0.52724658932E+02  0.51100000000E-03 0.  1.
<mgrwt>
<rscale>  0 0.20001310E+02</rscale>
<asrwt>0</asrwt>
<pdfrwt beam="2">  1        4 0.16129639E-01 0.20001310E+02</pdfrwt>
<pdfrwt beam="1">  1       -4 0.14675927E-03 0.20001310E+02</pdfrwt>
<totfact> 0.96379527E+05</totfact>
</mgrwt>
</event>
<event>
 5    1  0.1159377E-006  0.2000125E+02  0.7818608E-02  0.1745303E+00
         -4   -1    0    0    0  501 -0.00000000000E+00  0.00000000000E+00  0.51621733022E+02  0.51641259863E+02  0.14200000000E+01 0. -1.
          4   -1    0    0  501    0  0.00000000000E+00 -0.00000000000E+00 -0.16545680819E+01  0.21803659183E+01  0.14200000000E+01 0.  1.
       1023    2    1    2    0    0  0.00000000000E+00  0.00000000000E+00  0.49967164940E+02  0.53821625781E+02  0.20001245700E+02 0.  0.
        -11    1    3    3    0    0  0.21634959974E+01  0.97637769288E+01  0.24929611001E+02  0.26860706613E+02  0.51100000000E-03 0.  1.
         11    1    3    3    0    0 -0.21634959974E+01 -0.97637769288E+01  0.25037553939E+02  0.26960919168E+02  0.51100000000E-03 0. -1.
<mgrwt>
<rscale>  0 0.20001246E+02</rscale>
<asrwt>0</asrwt>
<pdfrwt beam="2">  1        4 0.29649697E-03 0.20001246E+02</pdfrwt>
<pdfrwt beam="1">  1       -4 0.79837537E-02 0.20001246E+02</pdfrwt>
<totfact> 0.11360998E+06</totfact>
</mgrwt>
</event>
<event>
 5    1  0.1154861E-006  0.2000196E+02  0.7818608E-02  0.1745289E+00
          4   -1    0    0  501    0  0.00000000000E+00  0.00000000000E+00  0.10834031674E+03  0.10834962220E+03  0.14200000000E+01 0. -1.
         -4   -1    0    0    0  501 -0.00000000000E+00 -0.00000000000E+00 -0.36219462531E+00  0.14654640721E+01  0.14200000000E+01 0.  1.
       1023    2    1    2    0    0  0.00000000000E+00  0.00000000000E+00  0.10797812211E+03  0.10981508627E+03  0.20001957853E+02 0.  0.
        -11    1    3    3    0    0  0.13240933332E+00 -0.10000030968E+02  0.53781618258E+02  0.54703570398E+02  0.51100000000E-03 0. -1.
         11    1    3    3    0    0 -0.13240933332E+00  0.10000030968E+02  0.54196503852E+02  0.55111515872E+02  0.51100000000E-03 0.  1.
<mgrwt>
<rscale>  0 0.20001958E+02</rscale>
<asrwt>0</asrwt>
<pdfrwt beam="1">  1        4 0.16753320E-01 0.20001958E+02</pdfrwt>
<pdfrwt beam="2">  1       -4 0.14130496E-03 0.20001958E+02</pdfrwt>
<totfact> 0.95283909E+05</totfact>
</mgrwt>
</event>
<event>
 5    1  0.1154861E-006  0.2000027E+02  0.7818608E-02  0.1745323E+00
          4   -1    0    0  501    0  0.00000000000E+00  0.00000000000E+00  0.24956920092E+01  0.28713896644E+01  0.14200000000E+01 0.  1.
         -4   -1    0    0    0  501 -0.00000000000E+00 -0.00000000000E+00 -0.36874875980E+02  0.36902206960E+02  0.14200000000E+01 0. -1.
       1023    2    1    2    0    0  0.00000000000E+00  0.00000000000E+00 -0.34379183971E+02  0.39773596624E+02  0.20000267447E+02 0.  0.
        -11    1    3    3    0    0  0.79030503781E+01  0.61273382256E+01 -0.17161806350E+02  0.19862781187E+02  0.51100000000E-03 0. -1.
         11    1    3    3    0    0 -0.79030503781E+01 -0.61273382256E+01 -0.17217377620E+02  0.19910815438E+02  0.51100000000E-03 0.  1.
<mgrwt>
<rscale>  0 0.20000267E+02</rscale>
<asrwt>0</asrwt>
<pdfrwt beam="1">  1        4 0.41495485E-03 0.20000267E+02</pdfrwt>
<pdfrwt beam="2">  1       -4 0.57040597E-02 0.20000267E+02</pdfrwt>
<totfact> 0.11972836E+06</totfact>
</mgrwt>
</event>
<event>
 5    1  0.1178796E-006  0.2000197E+02  0.7818608E-02  0.1745289E+00
          4   -1    0    0  501    0  0.00000000000E+00  0.00000000000E+00  0.20514977163E+02  0.20564063022E+02  0.14200000000E+01 0.  1.
         -4   -1    0    0    0  501 -0.00000000000E+00 -0.00000000000E+00 -0.47158333224E+01  0.49249856776E+01  0.14200000000E+01 0. -1.
       1023    2    1    2    0    0  0.00000000000E+00  0.00000000000E+00  0.15799143840E+02  0.25489048700E+02  0.20001966342E+02 0.  0.
        -11    1    3    3    0    0 -0.40386762309E+01 -0.91492486569E+01  0.78960961244E+01  0.12742369911E+02  0.51100000000E-03 0. -1.
         11    1    3    3    0    0  0.40386762309E+01  0.91492486569E+01  0.79030477158E+01  0.12746678789E+02  0.51100000000E-03 0.  1.
<mgrwt>
<rscale>  0 0.20001966E+02</rscale>
<asrwt>0</asrwt>
<pdfrwt beam="1">  1        4 0.31760148E-02 0.20001966E+02</pdfrwt>
<pdfrwt beam="2">  1       -4 0.74537730E-03 0.20001966E+02</pdfrwt>
<totfact> 0.12695852E+06</totfact>
</mgrwt>
</event>
<event>
 5    1  0.1154861E-006  0.2000063E+02  0.7818608E-02  0.1745316E+00
         -4   -1    0    0    0  501 -0.00000000000E+00  0.00000000000E+00  0.90490538464E+00  0.16838211767E+01  0.14200000000E+01 0.  1.
          4   -1    0    0  501    0  0.00000000000E+00 -0.00000000000E+00 -0.76475424155E+02  0.76488606339E+02  0.14200000000E+01 0. -1.
       1023    2    1    2    0    0  0.00000000000E+00  0.00000000000E+00 -0.75570518771E+02  0.78172427516E+02  0.20000627902E+02 0.  0.
        -11    1    3    3    0    0  0.34844830829E+01  0.93733351421E+01 -0.37502201531E+02  0.38812577266E+02  0.51100000000E-03 0.  1.
         11    1    3    3    0    0 -0.34844830829E+01 -0.93733351421E+01 -0.38068317239E+02  0.39359850250E+02  0.51100000000E-03 0. -1.
<mgrwt>
<rscale>  0 0.20000628E+02</rscale>
<asrwt>0</asrwt>
<pdfrwt beam="2">  1        4 0.11826377E-01 0.20000628E+02</pdfrwt>
<pdfrwt beam="1">  1       -4 0.20014689E-03 0.20000628E+02</pdfrwt>
<totfact> 0.10470649E+06</totfact>
</mgrwt>
</event>
<event>
 5    1  0.1169184E-006  0.2000071E+02  0.7818608E-02  0.1745314E+00
         -4   -1    0    0    0  501 -0.00000000000E+00  0.00000000000E+00  0.41021281007E+01  0.43409509274E+01  0.14200000000E+01 0. -1.
          4   -1    0    0  501    0  0.00000000000E+00 -0.00000000000E+00 -0.23428794318E+02  0.23471787388E+02  0.14200000000E+01 0.  1.
       1023    2    1    2    0    0  0.00000000000E+00  0.00000000000E+00 -0.19326666217E+02  0.27812738316E+02  0.20000709626E+02 0.  0.
        -11    1    3    3    0    0 -0.43454537288E+01 -0.90068594160E+01 -0.96289466595E+01  0.13882474516E+02  0.51100000000E-03 0.  1.
         11    1    3    3    0    0  0.43454537288E+01  0.90068594160E+01 -0.96977195578E+01  0.13930263800E+02  0.51100000000E-03 0. -1.
<mgrwt>
<rscale>  0 0.20000710E+02</rscale>
<asrwt>0</asrwt>
<pdfrwt beam="2">  1        4 0.36261080E-02 0.20000710E+02</pdfrwt>
<pdfrwt beam="1">  1       -4 0.65277479E-03 0.20000710E+02</pdfrwt>
<totfact> 0.12570692E+06</totfact>
</mgrwt>
</event>
<event>
 5    1  0.1154861E-006  0.2000028E+02  0.7818608E-02  0.1745322E+00
          4   -1    0    0  501    0  0.00000000000E+00  0.00000000000E+00  0.15294493870E+02  0.15360271571E+02  0.14200000000E+01 0. -1.
         -4   -1    0    0    0  501 -0.00000000000E+00 -0.00000000000E+00 -0.63804594738E+01  0.65365635541E+01  0.14200000000E+01 0.  1.
       1023    2    1    2    0    0  0.00000000000E+00  0.00000000000E+00  0.89140343962E+01  0.21896835125E+02  0.20000284480E+02 0.  0.
        -11    1    3    3    0    0  0.87188496088E+01 -0.48972430635E+01  0.44996512983E+01  0.10965773579E+02  0.51100000000E-03 0.  1.
         11    1    3    3    0    0 -0.87188496088E+01  0.48972430635E+01  0.44143830979E+01  0.10931061546E+02  0.51100000000E-03 0. -1.
<mgrwt>
<rscale>  0 0.20000284E+02</rscale>
<asrwt>0</asrwt>
<pdfrwt beam="1">  1        4 0.23700669E-02 0.20000284E+02</pdfrwt>
<pdfrwt beam="2">  1       -4 0.99867698E-03 0.20000284E+02</pdfrwt>
<totfact> 0.12901843E+06</totfact>
</mgrwt>
</event>
<event>
 5    1  0.1154861E-006  0.2000030E+02  0.7818608E-02  0.1745322E+00
         -4   -1    0    0    0  501 -0.00000000000E+00  0.00000000000E+00  0.46637585020E+01  0.48751454711E+01  0.14200000000E+01 0. -1.
          4   -1    0    0  501    0  0.00000000000E+00 -0.00000000000E+00 -0.20731185959E+02  0.20779761098E+02  0.14200000000E+01 0.  1.
       1023    2    1    2    0    0  0.00000000000E+00  0.00000000000E+00 -0.16067427457E+02  0.25654906569E+02  0.20000300147E+02 0.  0.
        -11    1    3    3    0    0  0.98893623007E+01  0.14834213167E+01 -0.79637409103E+01  0.12783629964E+02  0.51100000000E-03 0. -1.
         11    1    3    3    0    0 -0.98893623007E+01 -0.14834213167E+01 -0.81036865471E+01  0.12871276605E+02  0.51100000000E-03 0.  1.
<mgrwt>
<rscale>  0 0.20000300E+02</rscale>
<asrwt>0</asrwt>
<pdfrwt beam="2">  1        4 0.32094103E-02 0.20000300E+02</pdfrwt>
<pdfrwt beam="1">  1       -4 0.73749841E-03 0.20000300E+02</pdfrwt>
<totfact> 0.12688822E+06</totfact>
</mgrwt>
</event>
<event>
 5    1  0.1209880E-006  0.2000123E+02  0.7818608E-02  0.1745304E+00
          4   -1    0    0  501    0  0.00000000000E+00  0.00000000000E+00  0.18245672454E+02  0.18300845972E+02  0.14200000000E+01 0.  1.
         -4   -1    0    0    0  501 -0.00000000000E+00 -0.00000000000E+00 -0.53247904662E+01  0.55108795585E+01  0.14200000000E+01 0. -1.
       1023    2    1    2    0    0  0.00000000000E+00  0.00000000000E+00  0.12920881988E+02  0.23811725530E+02  0.20001226997E+02 0.  0.
        -11    1    3    3    0    0  0.74797740001E+01 -0.66381181823E+01  0.64905116445E+01  0.11922179908E+02  0.51100000000E-03 0.  1.
         11    1    3    3    0    0 -0.74797740001E+01  0.66381181823E+01  0.64303703431E+01  0.11889545622E+02  0.51100000000E-03 0. -1.
<mgrwt>
<rscale>  0 0.20001227E+02</rscale>
<asrwt>0</asrwt>
<pdfrwt beam="1">  1        4 0.28255852E-02 0.20001227E+02</pdfrwt>
<pdfrwt beam="2">  1       -4 0.83775720E-03 0.20001227E+02</pdfrwt>
<totfact> 0.12790796E+06</totfact>
</mgrwt>
</event>
<event>
 5    1  0.1194090E-006  0.2000110E+02  0.7818608E-02  0.1745306E+00
         -4   -1    0    0    0  501 -0.00000000000E+00  0.00000000000E+00  0.13707027510E+02  0.13780384725E+02  0.14200000000E+01 0. -1.
          4   -1    0    0  501    0  0.00000000000E+00 -0.00000000000E+00 -0.71333308075E+01  0.72732941924E+01  0.14200000000E+01 0.  1.
       1023    2    1    2    0    0  0.00000000000E+00  0.00000000000E+00  0.65736967023E+01  0.21053678917E+02  0.20001097660E+02 0.  0.
        -11    1    3    3    0    0 -0.50651897353E+01 -0.86225100160E+01  0.33758597552E+01  0.10554631940E+02  0.51100000000E-03 0. -1.
         11    1    3    3    0    0  0.50651897353E+01  0.86225100160E+01  0.31978369471E+01  0.10499046977E+02  0.51100000000E-03 0.  1.
<mgrwt>
<rscale>  0 0.20001098E+02</rscale>
<asrwt>0</asrwt>
<pdfrwt beam="2">  1        4 0.11138448E-02 0.20001098E+02</pdfrwt>
<pdfrwt beam="1">  1       -4 0.21251827E-02 0.20001098E+02</pdfrwt>
<totfact> 0.12950133E+06</totfact>
</mgrwt>
</event>
<event>
 5    1  0.1154861E-006  0.2000009E+02  0.7818608E-02  0.1745326E+00
         -4   -1    0    0    0  501 -0.00000000000E+00  0.00000000000E+00  0.17045206232E+01  0.22185108869E+01  0.14200000000E+01 0. -1.
          4   -1    0    0  501    0  0.00000000000E+00 -0.00000000000E+00 -0.50456173659E+02  0.50476151402E+02  0.14200000000E+01 0.  1.
       1023    2    1    2    0    0  0.00000000000E+00  0.00000000000E+00 -0.48751653036E+02  0.52694662288E+02  0.20000093999E+02 0.  0.
        -11    1    3    3    0    0 -0.43564567071E+01  0.90012345222E+01 -0.24372325726E+02  0.26344092307E+02  0.51100000000E-03 0. -1.
         11    1    3    3    0    0  0.43564567071E+01 -0.90012345222E+01 -0.24379327310E+02  0.26350569981E+02  0.51100000000E-03 0.  1.
<mgrwt>
<rscale>  0 0.20000094E+02</rscale>
<asrwt>0</asrwt>
<pdfrwt beam="2">  1        4 0.78035617E-02 0.20000094E+02</pdfrwt>
<pdfrwt beam="1">  1       -4 0.30330844E-03 0.20000094E+02</pdfrwt>
<totfact> 0.11408251E+06</totfact>
</mgrwt>
</event>
<event>
 5    1  0.1193671E-006  0.2000096E+02  0.7818608E-02  0.1745309E+00
         -4   -1    0    0    0  501 -0.00000000000E+00  0.00000000000E+00  0.20737110970E+02  0.20785672262E+02  0.14200000000E+01 0. -1.
          4   -1    0    0  501    0  0.00000000000E+00 -0.00000000000E+00 -0.46626950589E+01  0.48741281490E+01  0.14200000000E+01 0.  1.
       1023    2    1    2    0    0  0.00000000000E+00  0.00000000000E+00  0.16074415911E+02  0.25659800411E+02  0.20000962733E+02 0.  0.
        -11    1    3    3    0    0  0.69491869778E+01  0.71913928995E+01  0.79757369328E+01  0.12791392081E+02  0.51100000000E-03 0. -1.
         11    1    3    3    0    0 -0.69491869778E+01 -0.71913928995E+01  0.80986789781E+01  0.12868408330E+02  0.51100000000E-03 0.  1.
<mgrwt>
<rscale>  0 0.20000963E+02</rscale>
<asrwt>0</asrwt>
<pdfrwt beam="2">  1        4 0.73733726E-03 0.20000963E+02</pdfrwt>
<pdfrwt beam="1">  1       -4 0.32103244E-02 0.20000963E+02</pdfrwt>
<totfact> 0.12687695E+06</totfact>
</mgrwt>
</event>
<event>
 4    1  0.1154861E-006  0.2042731E+02  0.7818608E-02  0.1736962E+00
          4   -1    0    0  501    0  0.00000000000E+00  0.00000000000E+00  0.29787946068E+01  0.32999420160E+01  0.14200000000E+01 0. -1.
         -4   -1    0    0    0  501 -0.00000000000E+00 -0.00000000000E+00 -0.32891981527E+02  0.32922619106E+02  0.14200000000E+01 0.  1.
        -11    1    1    2    0    0  0.18286660646E+01 -0.10037271530E+02 -0.15803222970E+02  0.18810441139E+02  0.51100000000E-03 0.  1.
         11    1    1    2    0    0 -0.18286660646E+01  0.10037271530E+02 -0.14109963950E+02  0.17412119983E+02  0.51100000000E-03 0. -1.
<mgrwt>
<rscale>  0 0.20427315E+02</rscale>
<asrwt>0</asrwt>
<pdfrwt beam="1">  1        4 0.48533650E-03 0.20427315E+02</pdfrwt>
<pdfrwt beam="2">  1       -4 0.50873650E-02 0.20427315E+02</pdfrwt>
<totfact> 0.11630325E+06</totfact>
</mgrwt>
</event>
<event>
 5    1  0.1190486E-006  0.2000142E+02  0.7818608E-02  0.1745300E+00
         -4   -1    0    0    0  501 -0.00000000000E+00  0.00000000000E+00  0.45415996325E+01  0.47584164616E+01  0.14200000000E+01 0.  1.
          4   -1    0    0  501    0  0.00000000000E+00 -0.00000000000E+00 -0.21267340992E+02  0.21314694294E+02  0.14200000000E+01 0. -1.
       1023    2    1    2    0    0  0.00000000000E+00  0.00000000000E+00 -0.16725741359E+02  0.26073110756E+02  0.20001416962E+02 0.  0.
        -11    1    3    3    0    0 -0.95036716809E+00  0.99552972878E+01 -0.84346023658E+01  0.13082570817E+02  0.51100000000E-03 0.  1.
         11    1    3    3    0    0  0.95036716809E+00 -0.99552972878E+01 -0.82911389932E+01  0.12990539939E+02  0.51100000000E-03 0. -1.
<mgrwt>
<rscale>  0 0.20001417E+02</rscale>
<asrwt>0</asrwt>
<pdfrwt beam="2">  1        4 0.32922193E-02 0.20001417E+02</pdfrwt>
<pdfrwt beam="1">  1       -4 0.71902843E-03 0.20001417E+02</pdfrwt>
<totfact> 0.12664319E+06</totfact>
</mgrwt>
</event>
<event>
 5    1  0.1154861E-006  0.2000013E+02  0.7818608E-02  0.1745325E+00
         -4   -1    0    0    0  501 -0.00000000000E+00  0.00000000000E+00  0.89522750491E+00  0.16786400107E+01  0.14200000000E+01 0.  1.
          4   -1    0    0  501    0  0.00000000000E+00 -0.00000000000E+00 -0.76913129406E+02  0.76926236584E+02  0.14200000000E+01 0. -1.
       1023    2    1    2    0    0  0.00000000000E+00  0.00000000000E+00 -0.76017901901E+02  0.78604876595E+02  0.20000130376E+02 0.  0.
        -11    1    3    3    0    0  0.89734406164E+01 -0.44134226329E+01 -0.38084312203E+02  0.39375319327E+02  0.51100000000E-03 0. -1.
         11    1    3    3    0    0 -0.89734406164E+01  0.44134226329E+01 -0.37933589698E+02  0.39229557268E+02  0.51100000000E-03 0.  1.
<mgrwt>
<rscale>  0 0.20000130E+02</rscale>
<asrwt>0</asrwt>
<pdfrwt beam="2">  1        4 0.11894056E-01 0.20000130E+02</pdfrwt>
<pdfrwt beam="1">  1       -4 0.19899811E-03 0.20000130E+02</pdfrwt>
<totfact> 0.10456864E+06</totfact>
</mgrwt>
</event>
<event>
 5    1  0.1154861E-006  0.2000021E+02  0.7818608E-02  0.1745324E+00
         -4   -1    0    0    0  501 -0.00000000000E+00  0.00000000000E+00  0.86667189943E+02  0.86678822169E+02  0.14200000000E+01 0.  1.
          4   -1    0    0  501    0  0.00000000000E+00 -0.00000000000E+00 -0.70075427873E+00  0.15834950455E+01  0.14200000000E+01 0.  1.
       1023    2    1    2    0    0  0.00000000000E+00  0.00000000000E+00  0.85966435665E+02  0.88262317215E+02  0.20000214481E+02 0.  0.
        -11    1    3    3    0    0  0.94117669069E+01 -0.33794655552E+01  0.42979251198E+02  0.44127295153E+02  0.51100000000E-03 0.  1.
         11    1    3    3    0    0 -0.94117669069E+01  0.33794655552E+01  0.42987184467E+02  0.44135022062E+02  0.51100000000E-03 0. -1.
<mgrwt>
<rscale>  0 0.20000214E+02</rscale>
<asrwt>0</asrwt>
<pdfrwt beam="2">  1        4 0.17660621E-03 0.20000214E+02</pdfrwt>
<pdfrwt beam="1">  1       -4 0.13402216E-01 0.20000214E+02</pdfrwt>
<totfact> 0.10148738E+06</totfact>
</mgrwt>
</event>
<event>
 4    1  0.1154861E-006  0.2001699E+02  0.7818608E-02  0.1744990E+00
         -4   -1    0    0    0  501 -0.00000000000E+00  0.00000000000E+00  0.32953786381E+01  0.35883032715E+01  0.14200000000E+01 0. -1.
          4   -1    0    0  501    0  0.00000000000E+00 -0.00000000000E+00 -0.28792431929E+02  0.28827426808E+02  0.14200000000E+01 0.  1.
        -11    1    1    2    0    0  0.70611004692E+01 -0.70841259579E+01 -0.12173745629E+02  0.15755762861E+02  0.51100000000E-03 0.  1.
         11    1    1    2    0    0 -0.70611004692E+01  0.70841259579E+01 -0.13323307661E+02  0.16659967219E+02  0.51100000000E-03 0. -1.
<mgrwt>
<rscale>  0 0.20016989E+02</rscale>
<asrwt>0</asrwt>
<pdfrwt beam="2">  1        4 0.44548293E-02 0.20016989E+02</pdfrwt>
<pdfrwt beam="1">  1       -4 0.53220593E-03 0.20016989E+02</pdfrwt>
<totfact> 0.12310048E+06</totfact>
</mgrwt>
</event>
<event>
 5    1  0.1154861E-006  0.2000533E+02  0.7818608E-02  0.1745222E+00
         -4   -1    0    0    0  501 -0.00000000000E+00  0.00000000000E+00  0.66698921604E+01  0.68193739765E+01  0.14200000000E+01 0.  1.
          4   -1    0    0  501    0  0.00000000000E+00 -0.00000000000E+00 -0.14650312019E+02  0.14718968790E+02  0.14200000000E+01 0. -1.
       1023    2    1    2    0    0  0.00000000000E+00  0.00000000000E+00 -0.79804198584E+01  0.21538342767E+02  0.20005326991E+02 0.  0.
        -11    1    3    3    0    0 -0.88579080342E+01 -0.46460403520E+01 -0.40667268350E+01  0.10797522545E+02  0.51100000000E-03 0. -1.
         11    1    3    3    0    0  0.88579080342E+01  0.46460403520E+01 -0.39136930235E+01  0.10740820222E+02  0.51100000000E-03 0.  1.
<mgrwt>
<rscale>  0 0.20005327E+02</rscale>
<asrwt>0</asrwt>
<pdfrwt beam="2">  1        4 0.22706740E-02 0.20005327E+02</pdfrwt>
<pdfrwt beam="1">  1       -4 0.10429171E-02 0.20005327E+02</pdfrwt>
<totfact> 0.12916103E+06</totfact>
</mgrwt>
</event>
<event>
 5    1  0.1154861E-006  0.2000038E+02  0.7818608E-02  0.1745320E+00
         -4   -1    0    0    0  501 -0.00000000000E+00  0.00000000000E+00  0.26889382249E+01  0.30408532976E+01  0.14200000000E+01 0. -1.
          4   -1    0    0  501    0  0.00000000000E+00 -0.00000000000E+00 -0.34539222166E+02  0.34568399845E+02  0.14200000000E+01 0. -1.
       1023    2    1    2    0    0  0.00000000000E+00  0.00000000000E+00 -0.31850283941E+02  0.37609253142E+02  0.20000383366E+02 0.  0.
        -11    1    3    3    0    0  0.59941759702E+00 -0.99821921891E+01 -0.15961365622E+02  0.18835303425E+02  0.51100000000E-03 0. -1.
         11    1    3    3    0    0 -0.59941759702E+00  0.99821921891E+01 -0.15888918319E+02  0.18773949717E+02  0.51100000000E-03 0.  1.
<mgrwt>
<rscale>  0 0.20000383E+02</rscale>
<asrwt>0</asrwt>
<pdfrwt beam="2">  1        4 0.53430410E-02 0.20000383E+02</pdfrwt>
<pdfrwt beam="1">  1       -4 0.44299766E-03 0.20000383E+02</pdfrwt>
<totfact> 0.12074903E+06</totfact>
</mgrwt>
</event>
<event>
 5    1  0.1154861E-006  0.2000089E+02  0.7818608E-02  0.1745310E+00
         -4   -1    0    0    0  501 -0.00000000000E+00  0.00000000000E+00  0.16953570939E+01  0.22114781654E+01  0.14200000000E+01 0.  1.
          4   -1    0    0  501    0  0.00000000000E+00 -0.00000000000E+00 -0.50669516857E+02  0.50689410516E+02  0.14200000000E+01 0. -1.
       1023    2    1    2    0    0  0.00000000000E+00  0.00000000000E+00 -0.48974159763E+02  0.52900888682E+02  0.20000892451E+02 0.  0.
        -11    1    3    3    0    0 -0.17219538099E+01 -0.98510044064E+01 -0.24589916537E+02  0.26545647634E+02  0.51100000000E-03 0.  1.
         11    1    3    3    0    0  0.17219538099E+01  0.98510044064E+01 -0.24384243226E+02  0.26355241048E+02  0.51100000000E-03 0. -1.
<mgrwt>
<rscale>  0 0.20000892E+02</rscale>
<asrwt>0</asrwt>
<pdfrwt beam="2">  1        4 0.78365412E-02 0.20000892E+02</pdfrwt>
<pdfrwt beam="1">  1       -4 0.30205611E-03 0.20000892E+02</pdfrwt>
<totfact> 0.11398891E+06</totfact>
</mgrwt>
</event>
<event>
 5    1  0.1154861E-006  0.2000015E+02  0.7818608E-02  0.1745325E+00
         -4   -1    0    0    0  501 -0.00000000000E+00  0.00000000000E+00  0.50397628920E+02  0.50417629861E+02  0.14200000000E+01 0. -1.
          4   -1    0    0  501    0  0.00000000000E+00 -0.00000000000E+00 -0.17071087172E+01  0.22204999825E+01  0.14200000000E+01 0.  1.
       1023    2    1    2    0    0  0.00000000000E+00  0.00000000000E+00  0.48690520203E+02  0.52638129843E+02  0.20000148894E+02 0.  0.
        -11    1    3    3    0    0  0.99897344899E+01  0.45364850543E+00  0.24266455626E+02  0.26246170407E+02  0.51100000000E-03 0. -1.
         11    1    3    3    0    0 -0.99897344899E+01 -0.45364850543E+00  0.24424064577E+02  0.26391959436E+02  0.51100000000E-03 0.  1.
<mgrwt>
<rscale>  0 0.20000149E+02</rscale>
<asrwt>0</asrwt>
<pdfrwt beam="2">  1        4 0.30366231E-03 0.20000149E+02</pdfrwt>
<pdfrwt beam="1">  1       -4 0.77945107E-02 0.20000149E+02</pdfrwt>
<totfact> 0.11410505E+06</totfact>
</mgrwt>
</event>
<event>
 5    1  0.1176761E-006  0.2000095E+02  0.7818608E-02  0.1745309E+00
          4   -1    0    0  501    0  0.00000000000E+00  0.00000000000E+00  0.25434793886E+01  0.29130203227E+01  0.14200000000E+01 0. -1.
         -4   -1    0    0    0  501 -0.00000000000E+00 -0.00000000000E+00 -0.36272628842E+02  0.36300413264E+02  0.14200000000E+01 0.  1.
       1023    2    1    2    0    0  0.00000000000E+00  0.00000000000E+00 -0.33729149454E+02  0.39213433587E+02  0.20000946247E+02 0.  0.
        -11    1    3    3    0    0  0.99089851786E+01  0.13495863919E+01 -0.16845796506E+02  0.19590564843E+02  0.51100000000E-03 0.  1.
         11    1    3    3    0    0 -0.99089851786E+01 -0.13495863919E+01 -0.16883352948E+02  0.19622868744E+02  0.51100000000E-03 0. -1.
<mgrwt>
<rscale>  0 0.20000946E+02</rscale>
<asrwt>0</asrwt>
<pdfrwt beam="1">  1        4 0.42186804E-03 0.20000946E+02</pdfrwt>
<pdfrwt beam="2">  1       -4 0.56109676E-02 0.20000946E+02</pdfrwt>
<totfact> 0.11998229E+06</totfact>
</mgrwt>
</event>
<event>
 5    1  0.1154861E-006  0.2000022E+02  0.7818608E-02  0.1745324E+00
          4   -1    0    0  501    0  0.00000000000E+00  0.00000000000E+00  0.10975629498E+03  0.10976548040E+03  0.14200000000E+01 0.  1.
         -4   -1    0    0    0  501 -0.00000000000E+00 -0.00000000000E+00 -0.34294025815E+00  0.14608244318E+01  0.14200000000E+01 0. -1.
       1023    2    1    2    0    0  0.00000000000E+00  0.00000000000E+00  0.10941335473E+03  0.11122630484E+03  0.20000217383E+02 0.  0.
        -11    1    3    3    0    0  0.96998758766E+01  0.24316756953E+01  0.54924553154E+02  0.55827476910E+02  0.51100000000E-03 0.  1.
         11    1    3    3    0    0 -0.96998758766E+01 -0.24316756953E+01  0.54488801572E+02  0.55398827927E+02  0.51100000000E-03 0. -1.
<mgrwt>
<rscale>  0 0.20000217E+02</rscale>
<asrwt>0</asrwt>
<pdfrwt beam="1">  1        4 0.16972276E-01 0.20000217E+02</pdfrwt>
<pdfrwt beam="2">  1       -4 0.13945775E-03 0.20000217E+02</pdfrwt>
<totfact> 0.94924200E+05</totfact>
</mgrwt>
</event>
<event>
 5    1  0.1154861E-006  0.2000086E+02  0.7818608E-02  0.1745311E+00
          4   -1    0    0  501    0  0.00000000000E+00  0.00000000000E+00  0.91136222328E+00  0.16872999443E+01  0.14200000000E+01 0.  1.
         -4   -1    0    0    0  501 -0.00000000000E+00 -0.00000000000E+00 -0.76184759249E+02  0.76197991718E+02  0.14200000000E+01 0. -1.
       1023    2    1    2    0    0  0.00000000000E+00  0.00000000000E+00 -0.75273397026E+02  0.77885291662E+02  0.20000858919E+02 0.  0.
        -11    1    3    3    0    0  0.65166764646E+01 -0.75854692915E+01 -0.37818206820E+02  0.39118067231E+02  0.51100000000E-03 0. -1.
         11    1    3    3    0    0 -0.65166764646E+01  0.75854692915E+01 -0.37455190205E+02  0.38767224431E+02  0.51100000000E-03 0.  1.
<mgrwt>
<rscale>  0 0.20000859E+02</rscale>
<asrwt>0</asrwt>
<pdfrwt beam="1">  1        4 0.20091503E-03 0.20000859E+02</pdfrwt>
<pdfrwt beam="2">  1       -4 0.11781434E-01 0.20000859E+02</pdfrwt>
<totfact> 0.10479931E+06</totfact>
</mgrwt>
</event>
<event>
 5    1  0.1164991E-006  0.2000190E+02  0.7818608E-02  0.1745290E+00
          4   -1    0    0  501    0  0.00000000000E+00  0.00000000000E+00  0.49553216868E+01  0.51547660490E+01  0.14200000000E+01 0. -1.
         -4   -1    0    0    0  501 -0.00000000000E+00 -0.00000000000E+00 -0.19560300253E+02  0.19611775697E+02  0.14200000000E+01 0.  1.
       1023    2    1    2    0    0  0.00000000000E+00  0.00000000000E+00 -0.14604978566E+02  0.24766541746E+02  0.20001904687E+02 0.  0.
        -11    1    3    3    0    0 -0.16092074232E+00 -0.99996388157E+01 -0.73264859442E+01  0.12397421848E+02  0.51100000000E-03 0.  1.
         11    1    3    3    0    0  0.16092074232E+00  0.99996388157E+01 -0.72784926217E+01  0.12369119897E+02  0.51100000000E-03 0. -1.
<mgrwt>
<rscale>  0 0.20001905E+02</rscale>
<asrwt>0</asrwt>
<pdfrwt beam="1">  1        4 0.78165872E-03 0.20001905E+02</pdfrwt>
<pdfrwt beam="2">  1       -4 0.30285784E-02 0.20001905E+02</pdfrwt>
<totfact> 0.12736177E+06</totfact>
</mgrwt>
</event>
<event>
 4    1  0.1154861E-006  0.2004929E+02  0.7818608E-02  0.1744350E+00
         -4   -1    0    0    0  501 -0.00000000000E+00  0.00000000000E+00  0.11863653302E+01  0.18503682598E+01  0.14200000000E+01 0.  1.
          4   -1    0    0  501    0  0.00000000000E+00 -0.00000000000E+00 -0.65511906246E+02  0.65527294008E+02  0.14200000000E+01 0. -1.
        -11    1    1    2    0    0  0.65296584703E+01 -0.75862271724E+01 -0.30302997936E+02  0.31913303912E+02  0.51100000000E-03 0.  1.
         11    1    1    2    0    0 -0.65296584703E+01  0.75862271724E+01 -0.34022542980E+02  0.35464358355E+02  0.51100000000E-03 0. -1.
<mgrwt>
<rscale>  0 0.20049293E+02</rscale>
<asrwt>0</asrwt>
<pdfrwt beam="2">  1        4 0.10131013E-01 0.20049293E+02</pdfrwt>
<pdfrwt beam="1">  1       -4 0.23477862E-03 0.20049293E+02</pdfrwt>
<totfact> 0.10790878E+06</totfact>
</mgrwt>
</event>
<event>
 5    1  0.1154861E-006  0.2000057E+02  0.7818608E-02  0.1745317E+00
          4   -1    0    0  501    0  0.00000000000E+00  0.00000000000E+00  0.58736095661E+02  0.58753258067E+02  0.14200000000E+01 0.  1.
         -4   -1    0    0    0  501 -0.00000000000E+00 -0.00000000000E+00 -0.13860345413E+01  0.19843114044E+01  0.14200000000E+01 0. -1.
       1023    2    1    2    0    0  0.00000000000E+00  0.00000000000E+00  0.57350061119E+02  0.60737569471E+02  0.20000570864E+02 0.  0.
        -11    1    3    3    0    0 -0.91330385575E+01 -0.40734436309E+01  0.28616447262E+02  0.30313468796E+02  0.51100000000E-03 0. -1.
         11    1    3    3    0    0  0.91330385575E+01  0.40734436309E+01  0.28733613858E+02  0.30424100675E+02  0.51100000000E-03 0.  1.
<mgrwt>
<rscale>  0 0.20000571E+02</rscale>
<asrwt>0</asrwt>
<pdfrwt beam="1">  1        4 0.90836636E-02 0.20000571E+02</pdfrwt>
<pdfrwt beam="2">  1       -4 0.26057757E-03 0.20000571E+02</pdfrwt>
<totfact> 0.11089990E+06</totfact>
</mgrwt>
</event>
<event>
 5    1  0.1154861E-006  0.2000036E+02  0.7818608E-02  0.1745321E+00
          4   -1    0    0  501    0  0.00000000000E+00  0.00000000000E+00  0.46291288142E+02  0.46313062497E+02  0.14200000000E+01 0.  1.
         -4   -1    0    0    0  501 -0.00000000000E+00 -0.00000000000E+00 -0.19021893351E+01  0.23737574153E+01  0.14200000000E+01 0. -1.
       1023    2    1    2    0    0  0.00000000000E+00  0.00000000000E+00  0.44389098807E+02  0.48686819912E+02  0.20000358504E+02 0.  0.
        -11    1    3    3    0    0 -0.83298535483E+01  0.55332104381E+01  0.22129826401E+02  0.24284400233E+02  0.51100000000E-03 0.  1.
         11    1    3    3    0    0  0.83298535483E+01 -0.55332104381E+01  0.22259272406E+02  0.24402419679E+02  0.51100000000E-03 0. -1.
<mgrwt>
<rscale>  0 0.20000359E+02</rscale>
<asrwt>0</asrwt>
<pdfrwt beam="1">  1        4 0.71596855E-02 0.20000359E+02</pdfrwt>
<pdfrwt beam="2">  1       -4 0.33059396E-03 0.20000359E+02</pdfrwt>
<totfact> 0.11575382E+06</totfact>
</mgrwt>
</event>
<event>
 5    1  0.1157112E-006  0.2000097E+02  0.7818608E-02  0.1745309E+00
          4   -1    0    0  501    0  0.00000000000E+00  0.00000000000E+00  0.36522156014E+01  0.39185557032E+01  0.14200000000E+01 0. -1.
         -4   -1    0    0    0  501 -0.00000000000E+00 -0.00000000000E+00 -0.26133665331E+02  0.26172215489E+02  0.14200000000E+01 0.  1.
       1023    2    1    2    0    0  0.00000000000E+00  0.00000000000E+00 -0.22481449729E+02  0.30090771192E+02  0.20000973202E+02 0.  0.
        -11    1    3    3    0    0 -0.90389383466E+01  0.42783749116E+01 -0.11320811005E+02  0.15105219641E+02  0.51100000000E-03 0.  1.
         11    1    3    3    0    0  0.90389383466E+01 -0.42783749116E+01 -0.11160638724E+02  0.14985551552E+02  0.51100000000E-03 0. -1.
<mgrwt>
<rscale>  0 0.20000973E+02</rscale>
<asrwt>0</asrwt>
<pdfrwt beam="1">  1        4 0.58533244E-03 0.20000973E+02</pdfrwt>
<pdfrwt beam="2">  1       -4 0.40440169E-02 0.20000973E+02</pdfrwt>
<totfact> 0.12449771E+06</totfact>
</mgrwt>
</event>
<event>
 4    1  0.1154861E-006  0.2002006E+02  0.7818608E-02  0.1744930E+00
         -4   -1    0    0    0  501 -0.00000000000E+00  0.00000000000E+00  0.19205961797E+02  0.19258384370E+02  0.14200000000E+01 0.  1.
          4   -1    0    0  501    0  0.00000000000E+00 -0.00000000000E+00 -0.50597578478E+01  0.52552401923E+01  0.14200000000E+01 0. -1.
        -11    1    1    2    0    0  0.46551767295E+01  0.88538014919E+01  0.66146194366E+01  0.11992233395E+02  0.51100000000E-03 0. -1.
         11    1    1    2    0    0 -0.46551767295E+01 -0.88538014919E+01  0.75315845122E+01  0.12521391167E+02  0.51100000000E-03 0.  1.
<mgrwt>
<rscale>  0 0.20020058E+02</rscale>
<asrwt>0</asrwt>
<pdfrwt beam="2">  1        4 0.79749389E-03 0.20020058E+02</pdfrwt>
<pdfrwt beam="1">  1       -4 0.29738330E-02 0.20020058E+02</pdfrwt>
<totfact> 0.12726821E+06</totfact>
</mgrwt>
</event>
<event>
 5    1  0.1154861E-006  0.2000468E+02  0.7818608E-02  0.1745235E+00
          4   -1    0    0  501    0  0.00000000000E+00  0.00000000000E+00  0.95288064529E+02  0.95298644490E+02  0.14200000000E+01 0.  1.
         -4   -1    0    0    0  501 -0.00000000000E+00 -0.00000000000E+00 -0.55422618581E+00  0.15243249867E+01  0.14200000000E+01 0. -1.
       1023    2    1    2    0    0  0.00000000000E+00  0.00000000000E+00  0.94733838343E+02  0.96822969477E+02  0.20004681730E+02 0.  0.
        -11    1    3    3    0    0  0.39961300345E+01 -0.91688551708E+01  0.47847572416E+02  0.48881767018E+02  0.51100000000E-03 0. -1.
         11    1    3    3    0    0 -0.39961300345E+01  0.91688551708E+01  0.46886265927E+02  0.47941202460E+02  0.51100000000E-03 0.  1.
<mgrwt>
<rscale>  0 0.20004682E+02</rscale>
<asrwt>0</asrwt>
<pdfrwt beam="1">  1        4 0.14735138E-01 0.20004682E+02</pdfrwt>
<pdfrwt beam="2">  1       -4 0.16070241E-03 0.20004682E+02</pdfrwt>
<totfact> 0.98880455E+05</totfact>
</mgrwt>
</event>
<event>
 5    1  0.1154861E-006  0.2000322E+02  0.7818608E-02  0.1745264E+00
          4   -1    0    0  501    0  0.00000000000E+00  0.00000000000E+00  0.26597319407E+02  0.26635198509E+02  0.14200000000E+01 0.  1.
         -4   -1    0    0    0  501 -0.00000000000E+00 -0.00000000000E+00 -0.35848383153E+01  0.38558352852E+01  0.14200000000E+01 0. -1.
       1023    2    1    2    0    0  0.00000000000E+00  0.00000000000E+00  0.23012481092E+02  0.30491033795E+02  0.20003221137E+02 0.  0.
        -11    1    3    3    0    0  0.78794933836E+01  0.61594812138E+01  0.11382509491E+02  0.15152133426E+02  0.51100000000E-03 0.  1.
         11    1    3    3    0    0 -0.78794933836E+01 -0.61594812138E+01  0.11629971601E+02  0.15338900368E+02  0.51100000000E-03 0. -1.
<mgrwt>
<rscale>  0 0.20003221E+02</rscale>
<asrwt>0</asrwt>
<pdfrwt beam="1">  1        4 0.41156550E-02 0.20003221E+02</pdfrwt>
<pdfrwt beam="2">  1       -4 0.57527329E-03 0.20003221E+02</pdfrwt>
<totfact> 0.12426106E+06</totfact>
</mgrwt>
</event>
<event>
 5    1  0.1154861E-006  0.2000346E+02  0.7818608E-02  0.1745259E+00
          4   -1    0    0  501    0  0.00000000000E+00  0.00000000000E+00  0.78497701189E+02  0.78510543827E+02  0.14200000000E+01 0. -1.
         -4   -1    0    0    0  501 -0.00000000000E+00 -0.00000000000E+00 -0.86174271920E+00  0.16610239354E+01  0.14200000000E+01 0.  1.
       1023    2    1    2    0    0  0.00000000000E+00  0.00000000000E+00  0.77635958470E+02  0.80171567762E+02  0.20003455449E+02 0.  0.
        -11    1    3    3    0    0 -0.85109664969E+01  0.52519903723E+01  0.38333644288E+02  0.39616767136E+02  0.51100000000E-03 0.  1.
         11    1    3    3    0    0  0.85109664969E+01 -0.52519903723E+01  0.39302314181E+02  0.40554800627E+02  0.51100000000E-03 0. -1.
<mgrwt>
<rscale>  0 0.20003455E+02</rscale>
<asrwt>0</asrwt>
<pdfrwt beam="1">  1        4 0.12139038E-01 0.20003455E+02</pdfrwt>
<pdfrwt beam="2">  1       -4 0.19504691E-03 0.20003455E+02</pdfrwt>
<totfact> 0.10401958E+06</totfact>
</mgrwt>
</event>
<event>
 5    1  0.1154861E-006  0.2000148E+02  0.7818608E-02  0.1745299E+00
         -4   -1    0    0    0  501 -0.00000000000E+00  0.00000000000E+00  0.55404694064E+00  0.15242598244E+01  0.14200000000E+01 0. -1.
          4   -1    0    0  501    0  0.00000000000E+00 -0.00000000000E+00 -0.95268419191E+02  0.95279001334E+02  0.14200000000E+01 0.  1.
       1023    2    1    2    0    0  0.00000000000E+00  0.00000000000E+00 -0.94714372250E+02  0.96803261158E+02  0.20001476447E+02 0.  0.
        -11    1    3    3    0    0  0.48815819796E+01  0.87281889449E+01 -0.47065193901E+02  0.48115939168E+02  0.51100000000E-03 0.  1.
         11    1    3    3    0    0 -0.48815819796E+01 -0.87281889449E+01 -0.47649178349E+02  0.48687321990E+02  0.51100000000E-03 0. -1.
<mgrwt>
<rscale>  0 0.20001476E+02</rscale>
<asrwt>0</asrwt>
<pdfrwt beam="2">  1        4 0.14732119E-01 0.20001476E+02</pdfrwt>
<pdfrwt beam="1">  1       -4 0.16068384E-03 0.20001476E+02</pdfrwt>
<totfact> 0.98917828E+05</totfact>
</mgrwt>
</event>
<event>
 5    1  0.1154861E-006  0.2000037E+02  0.7818608E-02  0.1745321E+00
         -4   -1    0    0    0  501 -0.00000000000E+00  0.00000000000E+00  0.12427452115E+02  0.12508315876E+02  0.14200000000E+01 0. -1.
          4   -1    0    0  501    0  0.00000000000E+00 -0.00000000000E+00 -0.78763417673E+01  0.80033217876E+01  0.14200000000E+01 0.  1.
       1023    2    1    2    0    0  0.00000000000E+00  0.00000000000E+00  0.45511103475E+01  0.20511637664E+02  0.20000366853E+02 0.  0.
        -11    1    3    3    0    0  0.53559778680E+01 -0.84449215350E+01  0.22533297417E+01  0.10250887466E+02  0.51100000000E-03 0.  1.
         11    1    3    3    0    0 -0.53559778680E+01  0.84449215350E+01  0.22977806058E+01  0.10260750198E+02  0.51100000000E-03 0. -1.
<mgrwt>
<rscale>  0 0.20000367E+02</rscale>
<asrwt>0</asrwt>
<pdfrwt beam="2">  1        4 0.12277329E-02 0.20000367E+02</pdfrwt>
<pdfrwt beam="1">  1       -4 0.19279037E-02 0.20000367E+02</pdfrwt>
<totfact> 0.12983147E+06</totfact>
</mgrwt>
</event>
<event>
 5    1  0.1154861E-006  0.2000027E+02  0.7818608E-02  0.1745323E+00
         -4   -1    0    0    0  501 -0.00000000000E+00  0.00000000000E+00  0.51304271825E+00  0.15098386771E+01  0.14200000000E+01 0.  1.
          4   -1    0    0  501    0  0.00000000000E+00 -0.00000000000E+00 -0.97867081119E+02  0.97877382305E+02  0.14200000000E+01 0. -1.
       1023    2    1    2    0    0  0.00000000000E+00  0.00000000000E+00 -0.97354038401E+02  0.99387220982E+02  0.20000272535E+02 0.  0.
        -11    1    3    3    0    0  0.99741900950E+01 -0.71904492275E+00 -0.48502636291E+02  0.49522794964E+02  0.51100000000E-03 0.  1.
         11    1    3    3    0    0 -0.99741900950E+01  0.71904492275E+00 -0.48851402110E+02  0.49864426017E+02  0.51100000000E-03 0. -1.
<mgrwt>
<rscale>  0 0.20000273E+02</rscale>
<asrwt>0</asrwt>
<pdfrwt beam="2">  1        4 0.15133936E-01 0.20000273E+02</pdfrwt>
<pdfrwt beam="1">  1       -4 0.15639874E-03 0.20000273E+02</pdfrwt>
<totfact> 0.98184669E+05</totfact>
</mgrwt>
</event>
<event>
 5    1  0.1154861E-006  0.2000016E+02  0.7818608E-02  0.1745325E+00
         -4   -1    0    0    0  501 -0.00000000000E+00  0.00000000000E+00  0.39728869298E+02  0.39754238210E+02  0.14200000000E+01 0.  1.
          4   -1    0    0  501    0  0.00000000000E+00 -0.00000000000E+00 -0.22884862276E+01  0.26932451084E+01  0.14200000000E+01 0. -1.
       1023    2    1    2    0    0  0.00000000000E+00  0.00000000000E+00  0.37440383070E+02  0.42447483319E+02  0.20000163890E+02 0.  0.
        -11    1    3    3    0    0 -0.25533363168E+01 -0.96686125655E+01  0.18734167228E+02  0.21236068781E+02  0.51100000000E-03 0.  1.
         11    1    3    3    0    0  0.25533363168E+01  0.96686125655E+01  0.18706215842E+02  0.21211414538E+02  0.51100000000E-03 0. -1.
<mgrwt>
<rscale>  0 0.20000164E+02</rscale>
<asrwt>0</asrwt>
<pdfrwt beam="2">  1        4 0.38516160E-03 0.20000164E+02</pdfrwt>
<pdfrwt beam="1">  1       -4 0.61452198E-02 0.20000164E+02</pdfrwt>
<totfact> 0.11849989E+06</totfact>
</mgrwt>
</event>
<event>
 5    1  0.1154861E-006  0.2000024E+02  0.7818608E-02  0.1745323E+00
          4   -1    0    0  501    0  0.00000000000E+00  0.00000000000E+00  0.14422923675E+02  0.14492657704E+02  0.14200000000E+01 0.  1.
         -4   -1    0    0    0  501 -0.00000000000E+00 -0.00000000000E+00 -0.67733141248E+01  0.69205624218E+01  0.14200000000E+01 0. -1.
       1023    2    1    2    0    0  0.00000000000E+00  0.00000000000E+00  0.76496095497E+01  0.21413220126E+02  0.20000236746E+02 0.  0.
        -11    1    3    3    0    0  0.37829704464E+01 -0.92568550646E+01  0.37753213125E+01  0.10688932704E+02  0.51100000000E-03 0. -1.
         11    1    3    3    0    0 -0.37829704464E+01  0.92568550646E+01  0.38742882372E+01  0.10724287421E+02  0.51100000000E-03 0.  1.
<mgrwt>
<rscale>  0 0.20000237E+02</rscale>
<asrwt>0</asrwt>
<pdfrwt beam="1">  1        4 0.22356023E-02 0.20000237E+02</pdfrwt>
<pdfrwt beam="2">  1       -4 0.10587393E-02 0.20000237E+02</pdfrwt>
<totfact> 0.12930135E+06</totfact>
</mgrwt>
</event>
<event>
 5    1  0.1154861E-006  0.2000554E+02  0.7818608E-02  0.1745218E+00
         -4   -1    0    0    0  501 -0.00000000000E+00  0.00000000000E+00  0.46281241144E+02  0.46303020224E+02  0.14200000000E+01 0. -1.
          4   -1    0    0  501    0  0.00000000000E+00 -0.00000000000E+00 -0.19039470472E+01  0.23751661749E+01  0.14200000000E+01 0. -1.
       1023    2    1    2    0    0  0.00000000000E+00  0.00000000000E+00  0.44377294097E+02  0.48678186399E+02  0.20005539225E+02 0.  0.
        -11    1    3    3    0    0 -0.54083319674E+01 -0.84124769643E+01  0.21729697832E+02  0.23920693792E+02  0.51100000000E-03 0.  1.
         11    1    3    3    0    0  0.54083319674E+01  0.84124769643E+01  0.22647596265E+02  0.24757492607E+02  0.51100000000E-03 0. -1.
<mgrwt>
<rscale>  0 0.20005539E+02</rscale>
<asrwt>0</asrwt>
<pdfrwt beam="2">  1        4 0.33083784E-03 0.20005539E+02</pdfrwt>
<pdfrwt beam="1">  1       -4 0.71581145E-02 0.20005539E+02</pdfrwt>
<totfact> 0.11569699E+06</totfact>
</mgrwt>
</event>
<event>
 5    1  0.1154861E-006  0.2000075E+02  0.7818608E-02  0.1745313E+00
         -4   -1    0    0    0  501 -0.00000000000E+00  0.00000000000E+00  0.50463552031E+02  0.50483526853E+02  0.14200000000E+01 0. -1.
          4   -1    0    0  501    0  0.00000000000E+00 -0.00000000000E+00 -0.17043426723E+01  0.22183741670E+01  0.14200000000E+01 0.  1.
       1023    2    1    2    0    0  0.00000000000E+00  0.00000000000E+00  0.48759209358E+02  0.52701901020E+02  0.20000746834E+02 0.  0.
        -11    1    3    3    0    0  0.97727037810E+01 -0.21200785794E+01  0.24159210543E+02  0.26147044320E+02  0.51100000000E-03 0. -1.
         11    1    3    3    0    0 -0.97727037810E+01  0.21200785794E+01  0.24599998816E+02  0.26554856700E+02  0.51100000000E-03 0.  1.
<mgrwt>
<rscale>  0 0.20000747E+02</rscale>
<asrwt>0</asrwt>
<pdfrwt beam="2">  1        4 0.30328403E-03 0.20000747E+02</pdfrwt>
<pdfrwt beam="1">  1       -4 0.78046993E-02 0.20000747E+02</pdfrwt>
<totfact> 0.11407204E+06</totfact>
</mgrwt>
</event>
<event>
 5    1  0.1154861E-006  0.2000929E+02  0.7818608E-02  0.1745143E+00
         -4   -1    0    0    0  501 -0.00000000000E+00  0.00000000000E+00  0.11134381557E+03  0.11135287004E+03  0.14200000000E+01 0. -1.
          4   -1    0    0  501    0  0.00000000000E+00 -0.00000000000E+00 -0.32333312350E+00  0.14563462187E+01  0.14200000000E+01 0.  1.
       1023    2    1    2    0    0  0.00000000000E+00  0.00000000000E+00  0.11102048245E+03  0.11280921626E+03  0.20009291587E+02 0.  0.
        -11    1    3    3    0    0 -0.87933410609E+01  0.47713546252E+01  0.55142041612E+02  0.56042246791E+02  0.51100000000E-03 0.  1.
         11    1    3    3    0    0  0.87933410609E+01 -0.47713546252E+01  0.55878440838E+02  0.56766969469E+02  0.51100000000E-03 0. -1.
<mgrwt>
<rscale>  0 0.20009292E+02</rscale>
<asrwt>0</asrwt>
<pdfrwt beam="2">  1        4 0.13759488E-03 0.20009292E+02</pdfrwt>
<pdfrwt beam="1">  1       -4 0.17217673E-01 0.20009292E+02</pdfrwt>
<totfact> 0.94420745E+05</totfact>
</mgrwt>
</event>
<event>
 5    1  0.1167138E-006  0.2000136E+02  0.7818608E-02  0.1745301E+00
          4   -1    0    0  501    0  0.00000000000E+00  0.00000000000E+00  0.37872357939E+01  0.40446946681E+01  0.14200000000E+01 0. -1.
         -4   -1    0    0    0  501 -0.00000000000E+00 -0.00000000000E+00 -0.25261918584E+02  0.25301796982E+02  0.14200000000E+01 0.  1.
       1023    2    1    2    0    0  0.00000000000E+00  0.00000000000E+00 -0.21474682790E+02  0.29346491650E+02  0.20001364235E+02 0.  0.
        -11    1    3    3    0    0  0.71921797690E+01 -0.69488205298E+01 -0.10750945431E+02  0.14683200758E+02  0.51100000000E-03 0.  1.
         11    1    3    3    0    0 -0.71921797690E+01  0.69488205298E+01 -0.10723737359E+02  0.14663290892E+02  0.51100000000E-03 0. -1.
<mgrwt>
<rscale>  0 0.20001364E+02</rscale>
<asrwt>0</asrwt>
<pdfrwt beam="1">  1        4 0.60552378E-03 0.20001364E+02</pdfrwt>
<pdfrwt beam="2">  1       -4 0.39093210E-02 0.20001364E+02</pdfrwt>
<totfact> 0.12488284E+06</totfact>
</mgrwt>
</event>
<event>
 5    1  0.1154861E-006  0.2000289E+02  0.7818608E-02  0.1745271E+00
         -4   -1    0    0    0  501 -0.00000000000E+00  0.00000000000E+00  0.23808601492E+02  0.23850909941E+02  0.14200000000E+01 0.  1.
          4   -1    0    0  501    0  0.00000000000E+00 -0.00000000000E+00 -0.40339157362E+01  0.42765495632E+01  0.14200000000E+01 0. -1.
       1023    2    1    2    0    0  0.00000000000E+00  0.00000000000E+00  0.19774685756E+02  0.28127459504E+02  0.20002894326E+02 0.  0.
        -11    1    3    3    0    0  0.71188925824E+00  0.99759228783E+01  0.98087796302E+01  0.14008496767E+02  0.51100000000E-03 0. -1.
         11    1    3    3    0    0 -0.71188925824E+00 -0.99759228783E+01  0.99659061256E+01  0.14118962737E+02  0.51100000000E-03 0.  1.
<mgrwt>
<rscale>  0 0.20002894E+02</rscale>
<asrwt>0</asrwt>
<pdfrwt beam="2">  1        4 0.64252108E-03 0.20002894E+02</pdfrwt>
<pdfrwt beam="1">  1       -4 0.36847803E-02 0.20002894E+02</pdfrwt>
<totfact> 0.12551031E+06</totfact>
</mgrwt>
</event>
<event>
 5    1  0.1154861E-006  0.2000082E+02  0.7818608E-02  0.1745312E+00
          4   -1    0    0  501    0  0.00000000000E+00  0.00000000000E+00  0.11383198964E+01  0.18199374128E+01  0.14200000000E+01 0. -1.
         -4   -1    0    0    0  501 -0.00000000000E+00 -0.00000000000E+00 -0.66922051355E+02  0.66937114948E+02  0.14200000000E+01 0.  1.
       1023    2    1    2    0    0  0.00000000000E+00  0.00000000000E+00 -0.65783731458E+02  0.68757052360E+02  0.20000823101E+02 0.  0.
        -11    1    3    3    0    0 -0.67349487430E-01 -0.99999889530E+01 -0.33106988010E+02  0.34584345741E+02  0.51100000000E-03 0.  1.
         11    1    3    3    0    0  0.67349487430E-01  0.99999889530E+01 -0.32676743449E+02  0.34172706619E+02  0.51100000000E-03 0. -1.
<mgrwt>
<rscale>  0 0.20000823E+02</rscale>
<asrwt>0</asrwt>
<pdfrwt beam="1">  1        4 0.22871704E-03 0.20000823E+02</pdfrwt>
<pdfrwt beam="2">  1       -4 0.10349289E-01 0.20000823E+02</pdfrwt>
<totfact> 0.10794010E+06</totfact>
</mgrwt>
</event>
<event>
 4    1  0.1154861E-006  0.2014298E+02  0.7818608E-02  0.1742500E+00
          4   -1    0    0  501    0  0.00000000000E+00  0.00000000000E+00  0.65754144518E+01  0.67269960021E+01  0.14200000000E+01 0. -1.
         -4   -1    0    0    0  501 -0.00000000000E+00 -0.00000000000E+00 -0.15065259473E+02  0.15132033670E+02  0.14200000000E+01 0.  1.
        -11    1    1    2    0    0 -0.98941056041E+01  0.17550268847E+01 -0.49821211932E+01  0.11215835988E+02  0.51100000000E-03 0.  1.
         11    1    1    2    0    0  0.98941056041E+01 -0.17550268847E+01 -0.35077238277E+01  0.10643193683E+02  0.51100000000E-03 0. -1.
<mgrwt>
<rscale>  0 0.20142982E+02</rscale>
<asrwt>0</asrwt>
<pdfrwt beam="1">  1        4 0.10283988E-02 0.20142982E+02</pdfrwt>
<pdfrwt beam="2">  1       -4 0.23345288E-02 0.20142982E+02</pdfrwt>
<totfact> 0.12718108E+06</totfact>
</mgrwt>
</event>
<event>
 4    1  0.1154861E-006  0.2003479E+02  0.7818608E-02  0.1744637E+00
          4   -1    0    0  501    0  0.00000000000E+00  0.00000000000E+00  0.19808873401E+02  0.19859704565E+02  0.14200000000E+01 0.  1.
         -4   -1    0    0    0  501 -0.00000000000E+00 -0.00000000000E+00 -0.49077189841E+01  0.51090219834E+01  0.14200000000E+01 0. -1.
        -11    1    1    2    0    0 -0.99394154038E+01  0.10993531433E+01  0.67157337695E+01  0.12045814054E+02  0.51100000000E-03 0.  1.
         11    1    1    2    0    0  0.99394154038E+01 -0.10993531433E+01  0.81854206473E+01  0.12922912494E+02  0.51100000000E-03 0. -1.
<mgrwt>
<rscale>  0 0.20034792E+02</rscale>
<asrwt>0</asrwt>
<pdfrwt beam="1">  1        4 0.30669138E-02 0.20034792E+02</pdfrwt>
<pdfrwt beam="2">  1       -4 0.77442865E-03 0.20034792E+02</pdfrwt>
<totfact> 0.12682363E+06</totfact>
</mgrwt>
</event>
<event>
 5    1  0.1154861E-006  0.2000065E+02  0.7818608E-02  0.1745315E+00
         -4   -1    0    0    0  501 -0.00000000000E+00  0.00000000000E+00  0.11284737189E+01  0.18137951743E+01  0.14200000000E+01 0. -1.
          4   -1    0    0  501    0  0.00000000000E+00 -0.00000000000E+00 -0.67284637769E+02  0.67299620205E+02  0.14200000000E+01 0.  1.
       1023    2    1    2    0    0  0.00000000000E+00  0.00000000000E+00 -0.66156164050E+02  0.69113415379E+02  0.20000653578E+02 0.  0.
        -11    1    3    3    0    0  0.99992258931E+01 -0.14726382996E+00 -0.33140905393E+02  0.34616842947E+02  0.51100000000E-03 0. -1.
         11    1    3    3    0    0 -0.99992258931E+01  0.14726382996E+00 -0.33015258658E+02  0.34496572432E+02  0.51100000000E-03 0.  1.
<mgrwt>
<rscale>  0 0.20000654E+02</rscale>
<asrwt>0</asrwt>
<pdfrwt beam="2">  1        4 0.10405350E-01 0.20000654E+02</pdfrwt>
<pdfrwt beam="1">  1       -4 0.22748092E-03 0.20000654E+02</pdfrwt>
<totfact> 0.10781505E+06</totfact>
</mgrwt>
</event>
<event>
 5    1  0.1178160E-006  0.2000171E+02  0.7818608E-02  0.1745294E+00
         -4   -1    0    0    0  501 -0.00000000000E+00  0.00000000000E+00  0.16946425291E+02  0.17005814598E+02  0.14200000000E+01 0. -1.
          4   -1    0    0  501    0  0.00000000000E+00 -0.00000000000E+00 -0.57456613765E+01  0.59185323057E+01  0.14200000000E+01 0.  1.
       1023    2    1    2    0    0  0.00000000000E+00  0.00000000000E+00  0.11200763915E+02  0.22924346904E+02  0.20001714144E+02 0.  0.
        -11    1    3    3    0    0 -0.97462025562E+01  0.22412599015E+01  0.55159128962E+01  0.11420902134E+02  0.51100000000E-03 0.  1.
         11    1    3    3    0    0  0.97462025562E+01 -0.22412599015E+01  0.56848510183E+01  0.11503444770E+02  0.51100000000E-03 0. -1.
<mgrwt>
<rscale>  0 0.20001714E+02</rscale>
<asrwt>0</asrwt>
<pdfrwt beam="2">  1        4 0.90181408E-03 0.20001714E+02</pdfrwt>
<pdfrwt beam="1">  1       -4 0.26250085E-02 0.20001714E+02</pdfrwt>
<totfact> 0.12840665E+06</totfact>
</mgrwt>
</event>
<event>
 5    1  0.1154861E-006  0.2000182E+02  0.7818608E-02  0.1745292E+00
         -4   -1    0    0    0  501 -0.00000000000E+00  0.00000000000E+00  0.44976116692E+02  0.44998527451E+02  0.14200000000E+01 0. -1.
          4   -1    0    0  501    0  0.00000000000E+00 -0.00000000000E+00 -0.19717309217E+01  0.24298400827E+01  0.14200000000E+01 0.  1.
       1023    2    1    2    0    0  0.00000000000E+00  0.00000000000E+00  0.43004385771E+02  0.47428367533E+02  0.20001821201E+02 0.  0.
        -11    1    3    3    0    0 -0.89124214195E+01 -0.45366096692E+01  0.21316545302E+02  0.23545852856E+02  0.51100000000E-03 0.  1.
         11    1    3    3    0    0  0.89124214195E+01  0.45366096692E+01  0.21687840468E+02  0.23882514677E+02  0.51100000000E-03 0. -1.
<mgrwt>
<rscale>  0 0.20001821E+02</rscale>
<asrwt>0</asrwt>
<pdfrwt beam="2">  1        4 0.34030630E-03 0.20001821E+02</pdfrwt>
<pdfrwt beam="1">  1       -4 0.69563655E-02 0.20001821E+02</pdfrwt>
<totfact> 0.11627612E+06</totfact>
</mgrwt>
</event>
<event>
 5    1  0.1154861E-006  0.2000910E+02  0.7818608E-02  0.1745147E+00
          4   -1    0    0  501    0  0.00000000000E+00  0.00000000000E+00  0.11781689127E+02  0.11866954061E+02  0.14200000000E+01 0.  1.
         -4   -1    0    0    0  501 -0.00000000000E+00 -0.00000000000E+00 -0.83192052463E+01  0.84395246270E+01  0.14200000000E+01 0. -1.
       1023    2    1    2    0    0  0.00000000000E+00  0.00000000000E+00  0.34624838802E+01  0.20306478688E+02  0.20009104979E+02 0.  0.
        -11    1    3    3    0    0  0.44549921556E+01 -0.89554320684E+01  0.15175138089E+01  0.10116796284E+02  0.51100000000E-03 0.  1.
         11    1    3    3    0    0 -0.44549921556E+01  0.89554320684E+01  0.19449700714E+01  0.10189682403E+02  0.51100000000E-03 0. -1.
<mgrwt>
<rscale>  0 0.20009105E+02</rscale>
<asrwt>0</asrwt>
<pdfrwt beam="1">  1        4 0.18283817E-02 0.20009105E+02</pdfrwt>
<pdfrwt beam="2">  1       -4 0.12956919E-02 0.20009105E+02</pdfrwt>
<totfact> 0.12983735E+06</totfact>
</mgrwt>
</event>
<event>
 5    1  0.1154861E-006  0.2000311E+02  0.7818608E-02  0.1745266E+00
         -4   -1    0    0    0  501 -0.00000000000E+00  0.00000000000E+00  0.13791577137E+02  0.13864487006E+02  0.14200000000E+01 0.  1.
          4   -1    0    0  501    0  0.00000000000E+00 -0.00000000000E+00 -0.70904441464E+01  0.72312376668E+01  0.14200000000E+01 0. -1.
       1023    2    1    2    0    0  0.00000000000E+00  0.00000000000E+00  0.67011329908E+01  0.21095724673E+02  0.20003110161E+02 0.  0.
        -11    1    3    3    0    0 -0.60798764861E+01  0.79409266415E+01  0.34442425495E+01  0.10577618873E+02  0.51100000000E-03 0. -1.
         11    1    3    3    0    0  0.60798764861E+01 -0.79409266415E+01  0.32568904414E+01  0.10518105800E+02  0.51100000000E-03 0.  1.
<mgrwt>
<rscale>  0 0.20003110E+02</rscale>
<asrwt>0</asrwt>
<pdfrwt beam="2">  1        4 0.11072763E-02 0.20003110E+02</pdfrwt>
<pdfrwt beam="1">  1       -4 0.21382198E-02 0.20003110E+02</pdfrwt>
<totfact> 0.12944997E+06</totfact>
</mgrwt>
</event>
<event>
 5    1  0.1154861E-006  0.2000043E+02  0.7818608E-02  0.1745320E+00
          4   -1    0    0  501    0  0.00000000000E+00  0.00000000000E+00  0.15756195261E+02  0.15820053385E+02  0.14200000000E+01 0. -1.
         -4   -1    0    0    0  501 -0.00000000000E+00 -0.00000000000E+00 -0.61897259925E+01  0.63505202828E+01  0.14200000000E+01 0.  1.
       1023    2    1    2    0    0  0.00000000000E+00  0.00000000000E+00  0.95664692683E+01  0.22170573668E+02  0.20000425058E+02 0.  0.
        -11    1    3    3    0    0  0.61837083352E+01 -0.78590988600E+01  0.47568463102E+01  0.11073900431E+02  0.51100000000E-03 0. -1.
         11    1    3    3    0    0 -0.61837083352E+01  0.78590988600E+01  0.48096229581E+01  0.11096673237E+02  0.51100000000E-03 0.  1.
<mgrwt>
<rscale>  0 0.20000425E+02</rscale>
<asrwt>0</asrwt>
<pdfrwt beam="1">  1        4 0.24413110E-02 0.20000425E+02</pdfrwt>
<pdfrwt beam="2">  1       -4 0.96954650E-03 0.20000425E+02</pdfrwt>
<totfact> 0.12885776E+06</totfact>
</mgrwt>
</event>
<event>
 5    1  0.1154861E-006  0.2001117E+02  0.7818608E-02  0.1745106E+00
         -4   -1    0    0    0  501 -0.00000000000E+00  0.00000000000E+00  0.42616495024E+02  0.42640145967E+02  0.14200000000E+01 0.  1.
          4   -1    0    0  501    0  0.00000000000E+00 -0.00000000000E+00 -0.21079301200E+01  0.25416076391E+01  0.14200000000E+01 0. -1.
       1023    2    1    2    0    0  0.00000000000E+00  0.00000000000E+00  0.40508564904E+02  0.45181753606E+02  0.20011172589E+02 0.  0.
        -11    1    3    3    0    0  0.97690273130E+01 -0.21407613219E+01  0.20950202840E+02  0.23214817530E+02  0.51100000000E-03 0. -1.
         11    1    3    3    0    0 -0.97690273130E+01  0.21407613219E+01  0.19558362064E+02  0.21966936076E+02  0.51100000000E-03 0.  1.
<mgrwt>
<rscale>  0 0.20011173E+02</rscale>
<asrwt>0</asrwt>
<pdfrwt beam="2">  1        4 0.35947605E-03 0.20011173E+02</pdfrwt>
<pdfrwt beam="1">  1       -4 0.65915630E-02 0.20011173E+02</pdfrwt>
<totfact> 0.11714551E+06</totfact>
</mgrwt>
</event>
<event>
 5    1  0.1234923E-006  0.2000104E+02  0.7818608E-02  0.1745307E+00
          4   -1    0    0  501    0  0.00000000000E+00  0.00000000000E+00  0.27749595979E+02  0.27785904287E+02  0.14200000000E+01 0. -1.
         -4   -1    0    0    0  501 -0.00000000000E+00 -0.00000000000E+00 -0.34238833212E+01  0.37066665614E+01  0.14200000000E+01 0.  1.
       1023    2    1    2    0    0  0.00000000000E+00  0.00000000000E+00  0.24325712658E+02  0.31492570848E+02  0.20001043030E+02 0.  0.
        -11    1    3    3    0    0 -0.37830629804E+01 -0.92568265945E+01  0.12005195586E+02  0.15624504006E+02  0.51100000000E-03 0.  1.
         11    1    3    3    0    0  0.37830629804E+01  0.92568265945E+01  0.12320517072E+02  0.15868066842E+02  0.51100000000E-03 0. -1.
<mgrwt>
<rscale>  0 0.20001043E+02</rscale>
<asrwt>0</asrwt>
<pdfrwt beam="1">  1        4 0.42937142E-02 0.20001043E+02</pdfrwt>
<pdfrwt beam="2">  1       -4 0.55129677E-03 0.20001043E+02</pdfrwt>
<totfact> 0.12377149E+06</totfact>
</mgrwt>
</event>
<event>
 5    1  0.1154861E-006  0.2000031E+02  0.7818608E-02  0.1745322E+00
         -4   -1    0    0    0  501 -0.00000000000E+00  0.00000000000E+00  0.58376414393E+02  0.58393682513E+02  0.14200000000E+01 0.  1.
          4   -1    0    0  501    0  0.00000000000E+00 -0.00000000000E+00 -0.13981925469E+01  0.19928227212E+01  0.14200000000E+01 0. -1.
       1023    2    1    2    0    0  0.00000000000E+00  0.00000000000E+00  0.56978221846E+02  0.60386505234E+02  0.20000306238E+02 0.  0.
        -11    1    3    3    0    0  0.26872565099E+01 -0.96323255859E+01  0.28476159047E+02  0.30181031759E+02  0.51100000000E-03 0.  1.
         11    1    3    3    0    0 -0.26872565099E+01  0.96323255859E+01  0.28502062800E+02  0.30205473475E+02  0.51100000000E-03 0. -1.
<mgrwt>
<rscale>  0 0.20000306E+02</rscale>
<asrwt>0</asrwt>
<pdfrwt beam="2">  1        4 0.26217562E-03 0.20000306E+02</pdfrwt>
<pdfrwt beam="1">  1       -4 0.90280568E-02 0.20000306E+02</pdfrwt>
<totfact> 0.11103698E+06</totfact>
</mgrwt>
</event>
<event>
 5    1  0.1160238E-006  0.2000078E+02  0.7818608E-02  0.1745313E+00
          4   -1    0    0  501    0  0.00000000000E+00  0.00000000000E+00  0.32818935790E+01  0.35759230227E+01  0.14200000000E+01 0.  1.
         -4   -1    0    0    0  501 -0.00000000000E+00 -0.00000000000E+00 -0.28853832625E+02  0.28888753125E+02  0.14200000000E+01 0. -1.
       1023    2    1    2    0    0  0.00000000000E+00  0.00000000000E+00 -0.25571939046E+02  0.32464676148E+02  0.20000778256E+02 0.  0.
        -11    1    3    3    0    0 -0.62426243003E+01 -0.78121962010E+01 -0.12921917301E+02  0.16339422102E+02  0.51100000000E-03 0.  1.
         11    1    3    3    0    0  0.62426243003E+01  0.78121962010E+01 -0.12650021744E+02  0.16125254046E+02  0.51100000000E-03 0. -1.
<mgrwt>
<rscale>  0 0.20000778E+02</rscale>
<asrwt>0</asrwt>
<pdfrwt beam="1">  1        4 0.53021057E-03 0.20000778E+02</pdfrwt>
<pdfrwt beam="2">  1       -4 0.44643548E-02 0.20000778E+02</pdfrwt>
<totfact> 0.12327825E+06</totfact>
</mgrwt>
</event>
<event>
 5    1  0.1154861E-006  0.2000278E+02  0.7818608E-02  0.1745273E+00
          4   -1    0    0  501    0  0.00000000000E+00  0.00000000000E+00  0.27462515662E+01  0.30916496672E+01  0.14200000000E+01 0. -1.
         -4   -1    0    0    0  501 -0.00000000000E+00 -0.00000000000E+00 -0.33907273583E+02  0.33936994590E+02  0.14200000000E+01 0.  1.
       1023    2    1    2    0    0  0.00000000000E+00  0.00000000000E+00 -0.31161022017E+02  0.37028644258E+02  0.20002779867E+02 0.  0.
        -11    1    3    3    0    0 -0.89111962993E+01  0.45407467249E+01 -0.15580140127E+02  0.18514010018E+02  0.51100000000E-03 0. -1.
         11    1    3    3    0    0  0.89111962993E+01 -0.45407467249E+01 -0.15580881889E+02  0.18514634239E+02  0.51100000000E-03 0.  1.
<mgrwt>
<rscale>  0 0.20002780E+02</rscale>
<asrwt>0</asrwt>
<pdfrwt beam="1">  1        4 0.45135558E-03 0.20002780E+02</pdfrwt>
<pdfrwt beam="2">  1       -4 0.52453587E-02 0.20002780E+02</pdfrwt>
<totfact> 0.12099810E+06</totfact>
</mgrwt>
</event>
<event>
 5    1  0.1154861E-006  0.2000315E+02  0.7818608E-02  0.1745265E+00
          4   -1    0    0  501    0  0.00000000000E+00  0.00000000000E+00  0.88492584702E+02  0.88503977014E+02  0.14200000000E+01 0. -1.
         -4   -1    0    0    0  501 -0.00000000000E+00 -0.00000000000E+00 -0.66836850099E+00  0.15694318887E+01  0.14200000000E+01 0.  1.
       1023    2    1    2    0    0  0.00000000000E+00  0.00000000000E+00  0.87824216201E+02  0.90073408902E+02  0.20003150751E+02 0.  0.
        -11    1    3    3    0    0  0.84046272637E+01 -0.54192103314E+01  0.43187289786E+02  0.44329985330E+02  0.51100000000E-03 0. -1.
         11    1    3    3    0    0 -0.84046272637E+01  0.54192103314E+01  0.44636926415E+02  0.45743423572E+02  0.51100000000E-03 0.  1.
<mgrwt>
<rscale>  0 0.20003151E+02</rscale>
<asrwt>0</asrwt>
<pdfrwt beam="1">  1        4 0.13684436E-01 0.20003151E+02</pdfrwt>
<pdfrwt beam="2">  1       -4 0.17301479E-03 0.20003151E+02</pdfrwt>
<totfact> 0.10090293E+06</totfact>
</mgrwt>
</event>
<event>
 4    1  0.1154861E-006  0.2020858E+02  0.7818608E-02  0.1741212E+00
         -4   -1    0    0    0  501 -0.00000000000E+00  0.00000000000E+00  0.55120233723E+01  0.56919945236E+01  0.14200000000E+01 0.  1.
          4   -1    0    0  501    0  0.00000000000E+00 -0.00000000000E+00 -0.18016652930E+02  0.18072525635E+02  0.14200000000E+01 0. -1.
        -11    1    1    2    0    0 -0.31097806547E+01  0.95972972520E+01 -0.69152632401E+01  0.12231096280E+02  0.51100000000E-03 0. -1.
         11    1    1    2    0    0  0.31097806547E+01 -0.95972972520E+01 -0.55893663181E+01  0.11533423879E+02  0.51100000000E-03 0.  1.
<mgrwt>
<rscale>  0 0.20208579E+02</rscale>
<asrwt>0</asrwt>
<pdfrwt beam="2">  1        4 0.27899346E-02 0.20208579E+02</pdfrwt>
<pdfrwt beam="1">  1       -4 0.86614544E-03 0.20208579E+02</pdfrwt>
<totfact> 0.12527042E+06</totfact>
</mgrwt>
</event>
<event>
 5    1  0.1154861E-006  0.2000022E+02  0.7818608E-02  0.1745324E+00
          4   -1    0    0  501    0  0.00000000000E+00  0.00000000000E+00  0.97677581226E+01  0.98704355903E+01  0.14200000000E+01 0. -1.
         -4   -1    0    0    0  501 -0.00000000000E+00 -0.00000000000E+00 -0.10031515276E+02  0.10131520060E+02  0.14200000000E+01 0.  1.
       1023    2    1    2    0    0  0.00000000000E+00  0.00000000000E+00 -0.26375715328E+00  0.20001955651E+02  0.20000216549E+02 0.  0.
        -11    1    3    3    0    0 -0.75657248724E+01 -0.65391161780E+01 -0.87920157605E-01  0.10000398165E+02  0.51100000000E-03 0.  1.
         11    1    3    3    0    0  0.75657248724E+01  0.65391161780E+01 -0.17583699568E+00  0.10001557486E+02  0.51100000000E-03 0. -1.
<mgrwt>
<rscale>  0 0.20000217E+02</rscale>
<asrwt>0</asrwt>
<pdfrwt beam="1">  1        4 0.15183230E-02 0.20000217E+02</pdfrwt>
<pdfrwt beam="2">  1       -4 0.15589010E-02 0.20000217E+02</pdfrwt>
<totfact> 0.13013641E+06</totfact>
</mgrwt>
</event>
<event>
 5    1  0.1154861E-006  0.2000539E+02  0.7818608E-02  0.1745221E+00
         -4   -1    0    0    0  501 -0.00000000000E+00  0.00000000000E+00  0.24182755407E+01  0.28043638478E+01  0.14200000000E+01 0. -1.
          4   -1    0    0  501    0  0.00000000000E+00 -0.00000000000E+00 -0.37915113174E+02  0.37941694836E+02  0.14200000000E+01 0.  1.
       1023    2    1    2    0    0  0.00000000000E+00  0.00000000000E+00 -0.35496837634E+02  0.40746058684E+02  0.20005394679E+02 0.  0.
        -11    1    3    3    0    0  0.78654397493E+01 -0.61787986758E+01 -0.17964528648E+02  0.20561298241E+02  0.51100000000E-03 0.  1.
         11    1    3    3    0    0 -0.78654397493E+01  0.61787986758E+01 -0.17532308985E+02  0.20184760443E+02  0.51100000000E-03 0. -1.
<mgrwt>
<rscale>  0 0.20005395E+02</rscale>
<asrwt>0</asrwt>
<pdfrwt beam="2">  1        4 0.58648378E-02 0.20005395E+02</pdfrwt>
<pdfrwt beam="1">  1       -4 0.40378626E-03 0.20005395E+02</pdfrwt>
<totfact> 0.11921518E+06</totfact>
</mgrwt>
</event>
<event>
 5    1  0.1198352E-006  0.2000092E+02  0.7818608E-02  0.1745310E+00
          4   -1    0    0  501    0  0.00000000000E+00  0.00000000000E+00  0.12657063228E+02  0.12736469274E+02  0.14200000000E+01 0. -1.
         -4   -1    0    0    0  501 -0.00000000000E+00 -0.00000000000E+00 -0.77324893920E+01  0.78617931922E+01  0.14200000000E+01 0.  1.
       1023    2    1    2    0    0  0.00000000000E+00  0.00000000000E+00  0.49245738362E+01  0.20598262466E+02  0.20000924707E+02 0.  0.
        -11    1    3    3    0    0 -0.58084164357E+01 -0.81403713338E+01  0.23831808853E+01  0.10280218788E+02  0.51100000000E-03 0.  1.
         11    1    3    3    0    0  0.58084164357E+01  0.81403713338E+01  0.25413929509E+01  0.10318043678E+02  0.51100000000E-03 0. -1.
<mgrwt>
<rscale>  0 0.20000925E+02</rscale>
<asrwt>0</asrwt>
<pdfrwt beam="1">  1        4 0.19632951E-02 0.20000925E+02</pdfrwt>
<pdfrwt beam="2">  1       -4 0.12056684E-02 0.20000925E+02</pdfrwt>
<totfact> 0.12977284E+06</totfact>
</mgrwt>
</event>
<event>
 5    1  0.1154861E-006  0.2000042E+02  0.7818608E-02  0.1745320E+00
          4   -1    0    0  501    0  0.00000000000E+00  0.00000000000E+00  0.93755643132E+00  0.17015910384E+01  0.14200000000E+01 0. -1.
         -4   -1    0    0    0  501 -0.00000000000E+00 -0.00000000000E+00 -0.75012562463E+02  0.75026001674E+02  0.14200000000E+01 0.  1.
       1023    2    1    2    0    0  0.00000000000E+00  0.00000000000E+00 -0.74075006031E+02  0.76727592713E+02  0.20000424119E+02 0.  0.
        -11    1    3    3    0    0 -0.10623480509E+01 -0.99435983299E+01 -0.36950880558E+02  0.38280168565E+02  0.51100000000E-03 0.  1.
         11    1    3    3    0    0  0.10623480509E+01  0.99435983299E+01 -0.37124125474E+02  0.38447424147E+02  0.51100000000E-03 0. -1.
<mgrwt>
<rscale>  0 0.20000424E+02</rscale>
<asrwt>0</asrwt>
<pdfrwt beam="1">  1        4 0.20404519E-03 0.20000424E+02</pdfrwt>
<pdfrwt beam="2">  1       -4 0.11600197E-01 0.20000424E+02</pdfrwt>
<totfact> 0.10519002E+06</totfact>
</mgrwt>
</event>
<event>
 4    1  0.1154861E-006  0.2111252E+02  0.7818608E-02  0.1724068E+00
          4   -1    0    0  501    0  0.00000000000E+00  0.00000000000E+00  0.18152916413E+02  0.18208370995E+02  0.14200000000E+01 0. -1.
         -4   -1    0    0    0  501 -0.00000000000E+00 -0.00000000000E+00 -0.59907225957E+01  0.61567164315E+01  0.14200000000E+01 0.  1.
        -11    1    1    2    0    0  0.94576910914E+01  0.46506925483E+01  0.67713836631E+01  0.12527110558E+02  0.51100000000E-03 0. -1.
         11    1    1    2    0    0 -0.94576910914E+01 -0.46506925483E+01  0.53908101542E+01  0.11837976869E+02  0.51100000000E-03 0.  1.
<mgrwt>
<rscale>  0 0.21112521E+02</rscale>
<asrwt>0</asrwt>
<pdfrwt beam="1">  1        4 0.28097908E-02 0.21112521E+02</pdfrwt>
<pdfrwt beam="2">  1       -4 0.93868415E-03 0.21112521E+02</pdfrwt>
<totfact> 0.11414351E+06</totfact>
</mgrwt>
</event>
<event>
 5    1  0.1154861E-006  0.2000092E+02  0.7818608E-02  0.1745310E+00
          4   -1    0    0  501    0  0.00000000000E+00  0.00000000000E+00  0.11521621772E+03  0.11522496789E+03  0.14200000000E+01 0.  1.
         -4   -1    0    0    0  501 -0.00000000000E+00 -0.00000000000E+00 -0.27250467056E+00  0.14459110607E+01  0.14200000000E+01 0. -1.
       1023    2    1    2    0    0  0.00000000000E+00  0.00000000000E+00  0.11494371305E+03  0.11667087895E+03  0.20000920628E+02 0.  0.
        -11    1    3    3    0    0 -0.10963853208E+01  0.99397169965E+01  0.58030497133E+02  0.58885810112E+02  0.51100000000E-03 0.  1.
         11    1    3    3    0    0  0.10963853208E+01 -0.99397169965E+01  0.56913215913E+02  0.57785068837E+02  0.51100000000E-03 0. -1.
<mgrwt>
<rscale>  0 0.20000921E+02</rscale>
<asrwt>0</asrwt>
<pdfrwt beam="1">  1        4 0.17816495E-01 0.20000921E+02</pdfrwt>
<pdfrwt beam="2">  1       -4 0.13285901E-03 0.20000921E+02</pdfrwt>
<totfact> 0.93496169E+05</totfact>
</mgrwt>
</event>
<event>
 5    1  0.1154861E-006  0.2000405E+02  0.7818608E-02  0.1745248E+00
          4   -1    0    0  501    0  0.00000000000E+00  0.00000000000E+00  0.37429142014E+02  0.37456068559E+02  0.14200000000E+01 0. -1.
         -4   -1    0    0    0  501 -0.00000000000E+00 -0.00000000000E+00 -0.24542433357E+01  0.28354382996E+01  0.14200000000E+01 0.  1.
       1023    2    1    2    0    0  0.00000000000E+00  0.00000000000E+00  0.34974898678E+02  0.40291506859E+02  0.20004049275E+02 0.  0.
        -11    1    3    3    0    0  0.57567516639E+00  0.99840477651E+01  0.17151108003E+02  0.19853793533E+02  0.51100000000E-03 0. -1.
         11    1    3    3    0    0 -0.57567516639E+00 -0.99840477651E+01  0.17823790675E+02  0.20437713325E+02  0.51100000000E-03 0.  1.
<mgrwt>
<rscale>  0 0.20004049E+02</rscale>
<asrwt>0</asrwt>
<pdfrwt beam="1">  1        4 0.57897229E-02 0.20004049E+02</pdfrwt>
<pdfrwt beam="2">  1       -4 0.40896990E-03 0.20004049E+02</pdfrwt>
<totfact> 0.11944168E+06</totfact>
</mgrwt>
</event>
<event>
 5    1  0.1154861E-006  0.2000047E+02  0.7818608E-02  0.1745319E+00
          4   -1    0    0  501    0  0.00000000000E+00  0.00000000000E+00  0.96057543555E+00  0.17143818616E+01  0.14200000000E+01 0.  1.
         -4   -1    0    0    0  501 -0.00000000000E+00 -0.00000000000E+00 -0.74008529420E+02  0.74022150920E+02  0.14200000000E+01 0. -1.
       1023    2    1    2    0    0  0.00000000000E+00  0.00000000000E+00 -0.73047953984E+02  0.75736532782E+02  0.20000470408E+02 0.  0.
        -11    1    3    3    0    0 -0.62683955833E+01  0.77917809454E+01 -0.36492207543E+02  0.37837624729E+02  0.51100000000E-03 0.  1.
         11    1    3    3    0    0  0.62683955833E+01 -0.77917809454E+01 -0.36555746441E+02  0.37898908053E+02  0.51100000000E-03 0. -1.
<mgrwt>
<rscale>  0 0.20000470E+02</rscale>
<asrwt>0</asrwt>
<pdfrwt beam="1">  1        4 0.20681381E-03 0.20000470E+02</pdfrwt>
<pdfrwt beam="2">  1       -4 0.11444957E-01 0.20000470E+02</pdfrwt>
<totfact> 0.10552281E+06</totfact>
</mgrwt>
</event>
<event>
 5    1  0.1154861E-006  0.2000071E+02  0.7818608E-02  0.1745314E+00
         -4   -1    0    0    0  501 -0.00000000000E+00  0.00000000000E+00  0.10488387522E+01  0.17653505964E+01  0.14200000000E+01 0. -1.
          4   -1    0    0  501    0  0.00000000000E+00 -0.00000000000E+00 -0.70347938397E+02  0.70362268559E+02  0.14200000000E+01 0.  1.
       1023    2    1    2    0    0  0.00000000000E+00  0.00000000000E+00 -0.69299099645E+02  0.72127619155E+02  0.20000705822E+02 0.  0.
        -11    1    3    3    0    0  0.86094244564E+01  0.50872650926E+01 -0.34404895498E+02  0.35828749491E+02  0.51100000000E-03 0. -1.
         11    1    3    3    0    0 -0.86094244564E+01 -0.50872650926E+01 -0.34894204147E+02  0.36298869664E+02  0.51100000000E-03 0.  1.
<mgrwt>
<rscale>  0 0.20000706E+02</rscale>
<asrwt>0</asrwt>
<pdfrwt beam="2">  1        4 0.10878976E-01 0.20000706E+02</pdfrwt>
<pdfrwt beam="1">  1       -4 0.21757848E-03 0.20000706E+02</pdfrwt>
<totfact> 0.10675569E+06</totfact>
</mgrwt>
</event>
<event>
 5    1  0.1154861E-006  0.2000399E+02  0.7818608E-02  0.1745249E+00
         -4   -1    0    0    0  501 -0.00000000000E+00  0.00000000000E+00  0.96962252405E+01  0.97996522343E+01  0.14200000000E+01 0. -1.
          4   -1    0    0  501    0  0.00000000000E+00 -0.00000000000E+00 -0.10109363030E+02  0.10208605237E+02  0.14200000000E+01 0.  1.
       1023    2    1    2    0    0  0.00000000000E+00  0.00000000000E+00 -0.41313778975E+00  0.20008257471E+02  0.20003991706E+02 0.  0.
        -11    1    3    3    0    0  0.93471266324E+01 -0.35587717593E+01 -0.28588315883E+00  0.10005766445E+02  0.51100000000E-03 0. -1.
         11    1    3    3    0    0 -0.93471266324E+01  0.35587717593E+01 -0.12725463092E+00  0.10002491026E+02  0.51100000000E-03 0.  1.
<mgrwt>
<rscale>  0 0.20003992E+02</rscale>
<asrwt>0</asrwt>
<pdfrwt beam="2">  1        4 0.15708766E-02 0.20003992E+02</pdfrwt>
<pdfrwt beam="1">  1       -4 0.15073169E-02 0.20003992E+02</pdfrwt>
<totfact> 0.13008252E+06</totfact>
</mgrwt>
</event>
<event>
 5    1  0.1210153E-006  0.2000125E+02  0.7818608E-02  0.1745303E+00
         -4   -1    0    0    0  501 -0.00000000000E+00  0.00000000000E+00  0.13603502367E+02  0.13677414838E+02  0.14200000000E+01 0. -1.
          4   -1    0    0  501    0  0.00000000000E+00 -0.00000000000E+00 -0.71884938381E+01  0.73274036098E+01  0.14200000000E+01 0.  1.
       1023    2    1    2    0    0  0.00000000000E+00  0.00000000000E+00  0.64150085285E+01  0.21004818447E+02  0.20001251550E+02 0.  0.
        -11    1    3    3    0    0  0.69165679837E+01  0.72230295482E+01  0.31675546877E+01  0.10490208362E+02  0.51100000000E-03 0. -1.
         11    1    3    3    0    0 -0.69165679837E+01 -0.72230295482E+01  0.32474538408E+01  0.10514610085E+02  0.51100000000E-03 0.  1.
<mgrwt>
<rscale>  0 0.20001252E+02</rscale>
<asrwt>0</asrwt>
<pdfrwt beam="2">  1        4 0.11222931E-02 0.20001252E+02</pdfrwt>
<pdfrwt beam="1">  1       -4 0.21092174E-02 0.20001252E+02</pdfrwt>
<totfact> 0.12952812E+06</totfact>
</mgrwt>
</event>
<event>
 5    1  0.1181904E-006  0.2000151E+02  0.7818608E-02  0.1745298E+00
          4   -1    0    0  501    0  0.00000000000E+00  0.00000000000E+00  0.31116310674E+02  0.31148694835E+02  0.14200000000E+01 0. -1.
         -4   -1    0    0    0  501 -0.00000000000E+00 -0.00000000000E+00 -0.30215796869E+01  0.33386140544E+01  0.14200000000E+01 0.  1.
       1023    2    1    2    0    0  0.00000000000E+00  0.00000000000E+00  0.28094730987E+02  0.34487308890E+02  0.20001514073E+02 0.  0.
        -11    1    3    3    0    0 -0.48390203271E+01 -0.87520480859E+01  0.14002481580E+02  0.17207090227E+02  0.51100000000E-03 0.  1.
         11    1    3    3    0    0  0.48390203271E+01  0.87520480859E+01  0.14092249407E+02  0.17280218663E+02  0.51100000000E-03 0. -1.
<mgrwt>
<rscale>  0 0.20001514E+02</rscale>
<asrwt>0</asrwt>
<pdfrwt beam="1">  1        4 0.48140032E-02 0.20001514E+02</pdfrwt>
<pdfrwt beam="2">  1       -4 0.49173675E-03 0.20001514E+02</pdfrwt>
<totfact> 0.12225446E+06</totfact>
</mgrwt>
</event>
<event>
 4    1  0.1154861E-006  0.2003025E+02  0.7818608E-02  0.1744727E+00
         -4   -1    0    0    0  501 -0.00000000000E+00  0.00000000000E+00  0.88484253756E+00  0.16731247163E+01  0.14200000000E+01 0. -1.
          4   -1    0    0  501    0  0.00000000000E+00 -0.00000000000E+00 -0.77626981273E+02  0.77639967939E+02  0.14200000000E+01 0.  1.
        -11    1    1    2    0    0 -0.86791703778E+01 -0.49849687482E+01 -0.39769846769E+02  0.41009982006E+02  0.51100000000E-03 0.  1.
         11    1    1    2    0    0  0.86791703778E+01  0.49849687482E+01 -0.36972291966E+02  0.38303110649E+02  0.51100000000E-03 0. -1.
<mgrwt>
<rscale>  0 0.20030247E+02</rscale>
<asrwt>0</asrwt>
<pdfrwt beam="2">  1        4 0.12004245E-01 0.20030247E+02</pdfrwt>
<pdfrwt beam="1">  1       -4 0.19776575E-03 0.20030247E+02</pdfrwt>
<totfact> 0.10402138E+06</totfact>
</mgrwt>
</event>
<event>
 5    1  0.1190060E-006  0.2000121E+02  0.7818608E-02  0.1745304E+00
          4   -1    0    0  501    0  0.00000000000E+00  0.00000000000E+00  0.61422302269E+01  0.63042360489E+01  0.14200000000E+01 0. -1.
         -4   -1    0    0    0  501 -0.00000000000E+00 -0.00000000000E+00 -0.15876654655E+02  0.15940030208E+02  0.14200000000E+01 0.  1.
       1023    2    1    2    0    0  0.00000000000E+00  0.00000000000E+00 -0.97344244277E+01  0.22244266257E+02  0.20001209022E+02 0.  0.
        -11    1    3    3    0    0  0.77004776785E+01  0.63806213363E+01 -0.48126692592E+01  0.11098264314E+02  0.51100000000E-03 0.  1.
         11    1    3    3    0    0 -0.77004776785E+01 -0.63806213363E+01 -0.49217551686E+01  0.11146001943E+02  0.51100000000E-03 0. -1.
<mgrwt>
<rscale>  0 0.20001209E+02</rscale>
<asrwt>0</asrwt>
<pdfrwt beam="1">  1        4 0.96229553E-03 0.20001209E+02</pdfrwt>
<pdfrwt beam="2">  1       -4 0.24598993E-02 0.20001209E+02</pdfrwt>
<totfact> 0.12880483E+06</totfact>
</mgrwt>
</event>
<event>
 5    1  0.1176844E-006  0.2000067E+02  0.7818608E-02  0.1745315E+00
         -4   -1    0    0    0  501 -0.00000000000E+00  0.00000000000E+00  0.47330323042E+01  0.49414567481E+01  0.14200000000E+01 0.  1.
          4   -1    0    0  501    0  0.00000000000E+00 -0.00000000000E+00 -0.20440717043E+02  0.20489980801E+02  0.14200000000E+01 0. -1.
       1023    2    1    2    0    0  0.00000000000E+00  0.00000000000E+00 -0.15707684739E+02  0.25431437549E+02  0.20000666388E+02 0.  0.
        -11    1    3    3    0    0  0.29022924302E+01 -0.95698888944E+01 -0.78846997317E+01  0.12734777773E+02  0.51100000000E-03 0. -1.
         11    1    3    3    0    0 -0.29022924302E+01  0.95698888944E+01 -0.78229850073E+01  0.12696659777E+02  0.51100000000E-03 0.  1.
<mgrwt>
<rscale>  0 0.20000666E+02</rscale>
<asrwt>0</asrwt>
<pdfrwt beam="2">  1        4 0.31645478E-02 0.20000666E+02</pdfrwt>
<pdfrwt beam="1">  1       -4 0.74798100E-03 0.20000666E+02</pdfrwt>
<totfact> 0.12700727E+06</totfact>
</mgrwt>
</event>
<event>
 5    1  0.1167187E-006  0.2000229E+02  0.7818608E-02  0.1745283E+00
         -4   -1    0    0    0  501 -0.00000000000E+00  0.00000000000E+00  0.21052242731E+02  0.21100078767E+02  0.14200000000E+01 0.  1.
          4   -1    0    0  501    0  0.00000000000E+00 -0.00000000000E+00 -0.45905220104E+01  0.48051318742E+01  0.14200000000E+01 0. -1.
       1023    2    1    2    0    0  0.00000000000E+00  0.00000000000E+00  0.16461720720E+02  0.25905210642E+02  0.20002292101E+02 0.  0.
        -11    1    3    3    0    0 -0.96251423257E+01  0.27165047412E+01  0.82472048885E+01  0.12962991612E+02  0.51100000000E-03 0.  1.
         11    1    3    3    0    0  0.96251423257E+01 -0.27165047412E+01  0.82145158318E+01  0.12942219030E+02  0.51100000000E-03 0. -1.
<mgrwt>
<rscale>  0 0.20002292E+02</rscale>
<asrwt>0</asrwt>
<pdfrwt beam="2">  1        4 0.72642231E-03 0.20002292E+02</pdfrwt>
<pdfrwt beam="1">  1       -4 0.32589947E-02 0.20002292E+02</pdfrwt>
<totfact> 0.12672433E+06</totfact>
</mgrwt>
</event>
<event>
 4    1  0.1351814E-006  0.2011785E+02  0.7818608E-02  0.1742995E+00
          4   -1    0    0  501    0  0.00000000000E+00  0.00000000000E+00  0.14092915689E+02  0.14164274518E+02  0.14200000000E+01 0. -1.
         -4   -1    0    0    0  501 -0.00000000000E+00 -0.00000000000E+00 -0.70188623293E+01  0.71610633566E+01  0.14200000000E+01 0.  1.
        -11    1    1    2    0    0  0.45809865449E+01  0.88937444511E+01  0.24263682428E+01  0.10294240681E+02  0.51100000000E-03 0.  1.
         11    1    1    2    0    0 -0.45809865449E+01 -0.88937444511E+01  0.46476851166E+01  0.11031097193E+02  0.51100000000E-03 0. -1.
<mgrwt>
<rscale>  0 0.20117848E+02</rscale>
<asrwt>0</asrwt>
<pdfrwt beam="1">  1        4 0.21845685E-02 0.20117848E+02</pdfrwt>
<pdfrwt beam="2">  1       -4 0.10962527E-02 0.20117848E+02</pdfrwt>
<totfact> 0.12781372E+06</totfact>
</mgrwt>
</event>
<event>
 5    1  0.1176776E-006  0.2000074E+02  0.7818608E-02  0.1745313E+00
          4   -1    0    0  501    0  0.00000000000E+00  0.00000000000E+00  0.73204826752E+01  0.74569341286E+01  0.14200000000E+01 0. -1.
         -4   -1    0    0    0  501 -0.00000000000E+00 -0.00000000000E+00 -0.13360741212E+02  0.13435989198E+02  0.14200000000E+01 0.  1.
       1023    2    1    2    0    0  0.00000000000E+00  0.00000000000E+00 -0.60402585364E+01  0.20892923326E+02  0.20000738035E+02 0.  0.
        -11    1    3    3    0    0  0.94130196683E+01 -0.33766176148E+01 -0.30513703913E+01  0.10455493643E+02  0.51100000000E-03 0.  1.
         11    1    3    3    0    0 -0.94130196683E+01  0.33766176148E+01 -0.29888881451E+01  0.10437429683E+02  0.51100000000E-03 0. -1.
<mgrwt>
<rscale>  0 0.20000738E+02</rscale>
<asrwt>0</asrwt>
<pdfrwt beam="1">  1        4 0.11425127E-02 0.20000738E+02</pdfrwt>
<pdfrwt beam="2">  1       -4 0.20717832E-02 0.20000738E+02</pdfrwt>
<totfact> 0.12960100E+06</totfact>
</mgrwt>
</event>
<event>
 5    1  0.1154861E-006  0.2000111E+02  0.7818608E-02  0.1745306E+00
         -4   -1    0    0    0  501 -0.00000000000E+00  0.00000000000E+00  0.68580957229E+02  0.68595656528E+02  0.14200000000E+01 0. -1.
          4   -1    0    0  501    0  0.00000000000E+00 -0.00000000000E+00 -0.10941547793E+01  0.17926446053E+01  0.14200000000E+01 0.  1.
       1023    2    1    2    0    0  0.00000000000E+00  0.00000000000E+00  0.67486802450E+02  0.70388301133E+02  0.20001110756E+02 0.  0.
        -11    1    3    3    0    0  0.17840830319E+01  0.98396612447E+01  0.34081355068E+02  0.35518173506E+02  0.51100000000E-03 0.  1.
         11    1    3    3    0    0 -0.17840830319E+01 -0.98396612447E+01  0.33405447382E+02  0.34870127627E+02  0.51100000000E-03 0. -1.
<mgrwt>
<rscale>  0 0.20001111E+02</rscale>
<asrwt>0</asrwt>
<pdfrwt beam="2">  1        4 0.22319215E-03 0.20001111E+02</pdfrwt>
<pdfrwt beam="1">  1       -4 0.10605780E-01 0.20001111E+02</pdfrwt>
<totfact> 0.10735916E+06</totfact>
</mgrwt>
</event>
<event>
 5    1  0.1154861E-006  0.2000057E+02  0.7818608E-02  0.1745317E+00
         -4   -1    0    0    0  501 -0.00000000000E+00  0.00000000000E+00  0.74571028173E+00  0.16038964506E+01  0.14200000000E+01 0. -1.
          4   -1    0    0  501    0  0.00000000000E+00 -0.00000000000E+00 -0.84259111331E+02  0.84271075953E+02  0.14200000000E+01 0.  1.
       1023    2    1    2    0    0  0.00000000000E+00  0.00000000000E+00 -0.83513401049E+02  0.85874972403E+02  0.20000568255E+02 0.  0.
        -11    1    3    3    0    0 -0.12013800101E+01  0.99278481135E+01 -0.41817463116E+02  0.42996577815E+02  0.51100000000E-03 0. -1.
         11    1    3    3    0    0  0.12013800101E+01 -0.99278481135E+01 -0.41695937933E+02  0.42878394588E+02  0.51100000000E-03 0.  1.
<mgrwt>
<rscale>  0 0.20000568E+02</rscale>
<asrwt>0</asrwt>
<pdfrwt beam="2">  1        4 0.13029870E-01 0.20000568E+02</pdfrwt>
<pdfrwt beam="1">  1       -4 0.18165940E-03 0.20000568E+02</pdfrwt>
<totfact> 0.10222604E+06</totfact>
</mgrwt>
</event>
<event>
 5    1  0.1154861E-006  0.2000027E+02  0.7818608E-02  0.1745323E+00
         -4   -1    0    0    0  501 -0.00000000000E+00  0.00000000000E+00  0.34069619665E+01  0.36910418368E+01  0.14200000000E+01 0. -1.
          4   -1    0    0  501    0  0.00000000000E+00 -0.00000000000E+00 -0.27874817182E+02  0.27910962594E+02  0.14200000000E+01 0.  1.
       1023    2    1    2    0    0  0.00000000000E+00  0.00000000000E+00 -0.24467855215E+02  0.31602004430E+02  0.20000268628E+02 0.  0.
        -11    1    3    3    0    0 -0.57462052113E+01  0.81842838265E+01 -0.12176739312E+02  0.15756724172E+02  0.51100000000E-03 0.  1.
         11    1    3    3    0    0  0.57462052113E+01 -0.81842838265E+01 -0.12291115903E+02  0.15845280259E+02  0.51100000000E-03 0. -1.
<mgrwt>
<rscale>  0 0.20000269E+02</rscale>
<asrwt>0</asrwt>
<pdfrwt beam="2">  1        4 0.43130660E-02 0.20000269E+02</pdfrwt>
<pdfrwt beam="1">  1       -4 0.54878073E-03 0.20000269E+02</pdfrwt>
<totfact> 0.12372503E+06</totfact>
</mgrwt>
</event>
<event>
 5    1  0.1213427E-006  0.2000101E+02  0.7818608E-02  0.1745308E+00
          4   -1    0    0  501    0  0.00000000000E+00  0.00000000000E+00  0.30382940845E+02  0.30416105839E+02  0.14200000000E+01 0. -1.
         -4   -1    0    0    0  501 -0.00000000000E+00 -0.00000000000E+00 -0.31018139291E+01  0.34113999547E+01  0.14200000000E+01 0.  1.
       1023    2    1    2    0    0  0.00000000000E+00  0.00000000000E+00  0.27281126916E+02  0.33827505794E+02  0.20001006535E+02 0.  0.
        -11    1    3    3    0    0 -0.20826763580E+01  0.97812236264E+01  0.13663808594E+02  0.16932499579E+02  0.51100000000E-03 0.  1.
         11    1    3    3    0    0  0.20826763580E+01 -0.97812236264E+01  0.13617318322E+02  0.16895006215E+02  0.51100000000E-03 0. -1.
<mgrwt>
<rscale>  0 0.20001007E+02</rscale>
<asrwt>0</asrwt>
<pdfrwt beam="1">  1        4 0.47006638E-02 0.20001007E+02</pdfrwt>
<pdfrwt beam="2">  1       -4 0.50356763E-03 0.20001007E+02</pdfrwt>
<totfact> 0.12258904E+06</totfact>
</mgrwt>
</event>
<event>
 5    1  0.1154861E-006  0.2000138E+02  0.7818608E-02  0.1745301E+00
         -4   -1    0    0    0  501 -0.00000000000E+00  0.00000000000E+00  0.23520965660E+02  0.23563790560E+02  0.14200000000E+01 0.  1.
          4   -1    0    0  501    0  0.00000000000E+00 -0.00000000000E+00 -0.40854409591E+01  0.43251852943E+01  0.14200000000E+01 0. -1.
       1023    2    1    2    0    0  0.00000000000E+00  0.00000000000E+00  0.19435524701E+02  0.27888975855E+02  0.20001383798E+02 0.  0.
        -11    1    3    3    0    0  0.83729248507E+01 -0.54687863919E+01  0.96919371271E+01  0.13926490609E+02  0.51100000000E-03 0.  1.
         11    1    3    3    0    0 -0.83729248507E+01  0.54687863919E+01  0.97435875736E+01  0.13962485245E+02  0.51100000000E-03 0. -1.
<mgrwt>
<rscale>  0 0.20001384E+02</rscale>
<asrwt>0</asrwt>
<pdfrwt beam="2">  1        4 0.65026547E-03 0.20001384E+02</pdfrwt>
<pdfrwt beam="1">  1       -4 0.36403462E-02 0.20001384E+02</pdfrwt>
<totfact> 0.12565737E+06</totfact>
</mgrwt>
</event>
<event>
 5    1  0.1221320E-006  0.2000124E+02  0.7818608E-02  0.1745303E+00
          4   -1    0    0  501    0  0.00000000000E+00  0.00000000000E+00  0.15418263254E+02  0.15483515162E+02  0.14200000000E+01 0.  1.
         -4   -1    0    0    0  501 -0.00000000000E+00 -0.00000000000E+00 -0.63288295110E+01  0.64861762988E+01  0.14200000000E+01 0. -1.
       1023    2    1    2    0    0  0.00000000000E+00  0.00000000000E+00  0.90894337433E+01  0.21969691461E+02  0.20001238390E+02 0.  0.
        -11    1    3    3    0    0 -0.53770130243E+00  0.99860314050E+01  0.44904801501E+01  0.10962406586E+02  0.51100000000E-03 0.  1.
         11    1    3    3    0    0  0.53770130243E+00 -0.99860314050E+01  0.45989535931E+01  0.11007284875E+02  0.51100000000E-03 0. -1.
<mgrwt>
<rscale>  0 0.20001238E+02</rscale>
<asrwt>0</asrwt>
<pdfrwt beam="1">  1        4 0.23891635E-02 0.20001238E+02</pdfrwt>
<pdfrwt beam="2">  1       -4 0.99078906E-03 0.20001238E+02</pdfrwt>
<totfact> 0.12896355E+06</totfact>
</mgrwt>
</event>
<event>
 5    1  0.1159872E-006  0.2000102E+02  0.7818608E-02  0.1745308E+00
         -4   -1    0    0    0  501 -0.00000000000E+00  0.00000000000E+00  0.34246777051E+02  0.34276203675E+02  0.14200000000E+01 0.  1.
          4   -1    0    0  501    0  0.00000000000E+00 -0.00000000000E+00 -0.27150686007E+01  0.30639839273E+01  0.14200000000E+01 0. -1.
       1023    2    1    2    0    0  0.00000000000E+00  0.00000000000E+00  0.31531708450E+02  0.37340187602E+02  0.20001024284E+02 0.  0.
        -11    1    3    3    0    0 -0.89806891191E+01  0.43986018354E+01  0.15581344229E+02  0.18514285388E+02  0.51100000000E-03 0.  1.
         11    1    3    3    0    0  0.89806891191E+01 -0.43986018354E+01  0.15950364221E+02  0.18825902214E+02  0.51100000000E-03 0. -1.
<mgrwt>
<rscale>  0 0.20001024E+02</rscale>
<asrwt>0</asrwt>
<pdfrwt beam="2">  1        4 0.44680611E-03 0.20001024E+02</pdfrwt>
<pdfrwt beam="1">  1       -4 0.52978379E-02 0.20001024E+02</pdfrwt>
<totfact> 0.12087000E+06</totfact>
</mgrwt>
</event>
<event>
 5    1  0.1154861E-006  0.2000017E+02  0.7818608E-02  0.1745325E+00
          4   -1    0    0  501    0  0.00000000000E+00  0.00000000000E+00  0.13882280427E+02  0.13954716402E+02  0.14200000000E+01 0. -1.
         -4   -1    0    0    0  501 -0.00000000000E+00 -0.00000000000E+00 -0.70413087533E+01  0.71830654291E+01  0.14200000000E+01 0.  1.
       1023    2    1    2    0    0  0.00000000000E+00  0.00000000000E+00  0.68409716738E+01  0.21137781831E+02  0.20000173182E+02 0.  0.
        -11    1    3    3    0    0  0.91479062619E+01  0.40393508816E+01  0.34568989930E+01  0.10580675566E+02  0.51100000000E-03 0.  1.
         11    1    3    3    0    0 -0.91479062619E+01 -0.40393508816E+01  0.33840726808E+01  0.10557106265E+02  0.51100000000E-03 0. -1.
<mgrwt>
<rscale>  0 0.20000173E+02</rscale>
<asrwt>0</asrwt>
<pdfrwt beam="1">  1        4 0.21522118E-02 0.20000173E+02</pdfrwt>
<pdfrwt beam="2">  1       -4 0.10997546E-02 0.20000173E+02</pdfrwt>
<totfact> 0.12946398E+06</totfact>
</mgrwt>
</event>
<event>
 4    1  0.1154861E-006  0.2001542E+02  0.7818608E-02  0.1745022E+00
          4   -1    0    0  501    0  0.00000000000E+00  0.00000000000E+00  0.12793516282E+02  0.12872080596E+02  0.14200000000E+01 0. -1.
         -4   -1    0    0    0  501 -0.00000000000E+00 -0.00000000000E+00 -0.76605391006E+01  0.77910371140E+01  0.14200000000E+01 0.  1.
        -11    1    1    2    0    0 -0.68384773979E+01 -0.72970377622E+01  0.21764925482E+01  0.10234678954E+02  0.51100000000E-03 0.  1.
         11    1    1    2    0    0  0.68384773979E+01  0.72970377622E+01  0.29564846333E+01  0.10428438755E+02  0.51100000000E-03 0. -1.
<mgrwt>
<rscale>  0 0.20015419E+02</rscale>
<asrwt>0</asrwt>
<pdfrwt beam="1">  1        4 0.19843150E-02 0.20015419E+02</pdfrwt>
<pdfrwt beam="2">  1       -4 0.11946262E-02 0.20015419E+02</pdfrwt>
<totfact> 0.12954286E+06</totfact>
</mgrwt>
</event>
<event>
 5    1  0.1195220E-006  0.2000128E+02  0.7818608E-02  0.1745303E+00
         -4   -1    0    0    0  501 -0.00000000000E+00  0.00000000000E+00  0.89394289851E+01  0.90515076412E+01  0.14200000000E+01 0.  1.
          4   -1    0    0  501    0  0.00000000000E+00 -0.00000000000E+00 -0.10959962557E+02  0.11051569085E+02  0.14200000000E+01 0. -1.
       1023    2    1    2    0    0  0.00000000000E+00  0.00000000000E+00 -0.20205335715E+01  0.20103076726E+02  0.20001278408E+02 0.  0.
        -11    1    3    3    0    0 -0.71127423634E+01  0.70298365392E+01 -0.95449989163E+00  0.10045933307E+02  0.51100000000E-03 0. -1.
         11    1    3    3    0    0  0.71127423634E+01 -0.70298365392E+01 -0.10660336798E+01  0.10057143420E+02  0.51100000000E-03 0.  1.
<mgrwt>
<rscale>  0 0.20001278E+02</rscale>
<asrwt>0</asrwt>
<pdfrwt beam="2">  1        4 0.17018162E-02 0.20001278E+02</pdfrwt>
<pdfrwt beam="1">  1       -4 0.13909649E-02 0.20001278E+02</pdfrwt>
<totfact> 0.13006232E+06</totfact>
</mgrwt>
</event>
<event>
 5    1  0.1154861E-006  0.2000326E+02  0.7818608E-02  0.1745263E+00
          4   -1    0    0  501    0  0.00000000000E+00  0.00000000000E+00  0.95633853079E+01  0.96682334761E+01  0.14200000000E+01 0.  1.
         -4   -1    0    0    0  501 -0.00000000000E+00 -0.00000000000E+00 -0.10248865040E+02  0.10346769284E+02  0.14200000000E+01 0. -1.
       1023    2    1    2    0    0  0.00000000000E+00  0.00000000000E+00 -0.68547973238E+00  0.20015002760E+02  0.20003261060E+02 0.  0.
        -11    1    3    3    0    0 -0.74496190046E+01  0.66734083114E+01 -0.38032771313E+00  0.10008788700E+02  0.51100000000E-03 0.  1.
         11    1    3    3    0    0  0.74496190046E+01 -0.66734083114E+01 -0.30515201924E+00  0.10006214060E+02  0.51100000000E-03 0. -1.
<mgrwt>
<rscale>  0 0.20003261E+02</rscale>
<asrwt>0</asrwt>
<pdfrwt beam="1">  1        4 0.14868864E-02 0.20003261E+02</pdfrwt>
<pdfrwt beam="2">  1       -4 0.15923448E-02 0.20003261E+02</pdfrwt>
<totfact> 0.13008823E+06</totfact>
</mgrwt>
</event>
<event>
 5    1  0.1154861E-006  0.2000361E+02  0.7818608E-02  0.1745256E+00
          4   -1    0    0  501    0  0.00000000000E+00  0.00000000000E+00  0.78654303937E+02  0.78667121009E+02  0.14200000000E+01 0. -1.
         -4   -1    0    0    0  501 -0.00000000000E+00 -0.00000000000E+00 -0.85846123073E+00  0.16593238637E+01  0.14200000000E+01 0.  1.
       1023    2    1    2    0    0  0.00000000000E+00  0.00000000000E+00  0.77795842706E+02  0.80326444872E+02  0.20003614760E+02 0.  0.
        -11    1    3    3    0    0  0.92702623279E+01  0.37545914633E+01  0.39049768449E+02  0.40310285745E+02  0.51100000000E-03 0.  1.
         11    1    3    3    0    0 -0.92702623279E+01 -0.37545914633E+01  0.38746074257E+02  0.40016159127E+02  0.51100000000E-03 0. -1.
<mgrwt>
<rscale>  0 0.20003615E+02</rscale>
<asrwt>0</asrwt>
<pdfrwt beam="1">  1        4 0.12163256E-01 0.20003615E+02</pdfrwt>
<pdfrwt beam="2">  1       -4 0.19466166E-03 0.20003615E+02</pdfrwt>
<totfact> 0.10396740E+06</totfact>
</mgrwt>
</event>
<event>
 5    1  0.1154861E-006  0.2000081E+02  0.7818608E-02  0.1745312E+00
         -4   -1    0    0    0  501 -0.00000000000E+00  0.00000000000E+00  0.58270131751E+02  0.58287431358E+02  0.14200000000E+01 0.  1.
          4   -1    0    0  501    0  0.00000000000E+00 -0.00000000000E+00 -0.14019278624E+01  0.19954452464E+01  0.14200000000E+01 0. -1.
       1023    2    1    2    0    0  0.00000000000E+00  0.00000000000E+00  0.56868203888E+02  0.60282876604E+02  0.20000814937E+02 0.  0.
        -11    1    3    3    0    0 -0.80358844112E+01  0.59523963595E+01  0.28310248547E+02  0.30024600476E+02  0.51100000000E-03 0. -1.
         11    1    3    3    0    0  0.80358844112E+01 -0.59523963595E+01  0.28557955341E+02  0.30258276128E+02  0.51100000000E-03 0.  1.
<mgrwt>
<rscale>  0 0.20000815E+02</rscale>
<asrwt>0</asrwt>
<pdfrwt beam="2">  1        4 0.26266717E-03 0.20000815E+02</pdfrwt>
<pdfrwt beam="1">  1       -4 0.90116203E-02 0.20000815E+02</pdfrwt>
<totfact> 0.11107097E+06</totfact>
</mgrwt>
</event>
<event>
 5    1  0.1197413E-006  0.2000142E+02  0.7818608E-02  0.1745300E+00
          4   -1    0    0  501    0  0.00000000000E+00  0.00000000000E+00  0.23297400921E+02  0.23340636017E+02  0.14200000000E+01 0.  1.
         -4   -1    0    0    0  501 -0.00000000000E+00 -0.00000000000E+00 -0.41268730032E+01  0.43643419647E+01  0.14200000000E+01 0. -1.
       1023    2    1    2    0    0  0.00000000000E+00  0.00000000000E+00  0.19170527917E+02  0.27704977981E+02  0.20001416558E+02 0.  0.
        -11    1    3    3    0    0  0.99924178700E+01  0.40071997801E+00  0.96849026797E+01  0.13921434250E+02  0.51100000000E-03 0.  1.
         11    1    3    3    0    0 -0.99924178700E+01 -0.40071997801E+00  0.94856252376E+01  0.13783543732E+02  0.51100000000E-03 0. -1.
<mgrwt>
<rscale>  0 0.20001417E+02</rscale>
<asrwt>0</asrwt>
<pdfrwt beam="1">  1        4 0.36058081E-02 0.20001417E+02</pdfrwt>
<pdfrwt beam="2">  1       -4 0.65649617E-03 0.20001417E+02</pdfrwt>
<totfact> 0.12575581E+06</totfact>
</mgrwt>
</event>
<event>
 5    1  0.1209011E-006  0.2000083E+02  0.7818608E-02  0.1745312E+00
          4   -1    0    0  501    0  0.00000000000E+00  0.00000000000E+00  0.14407795256E+02  0.14477602154E+02  0.14200000000E+01 0. -1.
         -4   -1    0    0    0  501 -0.00000000000E+00 -0.00000000000E+00 -0.67809622037E+01  0.69280479508E+01  0.14200000000E+01 0.  1.
       1023    2    1    2    0    0  0.00000000000E+00  0.00000000000E+00  0.76268330520E+01  0.21405650105E+02  0.20000831833E+02 0.  0.
        -11    1    3    3    0    0  0.29341352295E+01  0.95602794874E+01  0.38294635816E+01  0.10708542618E+02  0.51100000000E-03 0. -1.
         11    1    3    3    0    0 -0.29341352295E+01 -0.95602794874E+01  0.37973694704E+01  0.10697107487E+02  0.51100000000E-03 0.  1.
<mgrwt>
<rscale>  0 0.20000832E+02</rscale>
<asrwt>0</asrwt>
<pdfrwt beam="1">  1        4 0.22332679E-02 0.20000832E+02</pdfrwt>
<pdfrwt beam="2">  1       -4 0.10599090E-02 0.20000832E+02</pdfrwt>
<totfact> 0.12929794E+06</totfact>
</mgrwt>
</event>
<event>
 5    1  0.1157451E-006  0.2000073E+02  0.7818608E-02  0.1745314E+00
          4   -1    0    0  501    0  0.00000000000E+00  0.00000000000E+00  0.14636986978E+02  0.14705705961E+02  0.14200000000E+01 0. -1.
         -4   -1    0    0    0  501 -0.00000000000E+00 -0.00000000000E+00 -0.66729047361E+01  0.68223205448E+01  0.14200000000E+01 0.  1.
       1023    2    1    2    0    0  0.00000000000E+00  0.00000000000E+00  0.79640822424E+01  0.21528026506E+02  0.20000732968E+02 0.  0.
        -11    1    3    3    0    0  0.36470103792E+01 -0.93115176882E+01  0.40334726596E+01  0.10783039846E+02  0.51100000000E-03 0.  1.
         11    1    3    3    0    0 -0.36470103792E+01  0.93115176882E+01  0.39306095828E+01  0.10744986660E+02  0.51100000000E-03 0. -1.
<mgrwt>
<rscale>  0 0.20000733E+02</rscale>
<asrwt>0</asrwt>
<pdfrwt beam="1">  1        4 0.22686237E-02 0.20000733E+02</pdfrwt>
<pdfrwt beam="2">  1       -4 0.10433803E-02 0.20000733E+02</pdfrwt>
<totfact> 0.12922759E+06</totfact>
</mgrwt>
</event>
<event>
 5    1  0.1154861E-006  0.2000635E+02  0.7818608E-02  0.1745202E+00
          4   -1    0    0  501    0  0.00000000000E+00  0.00000000000E+00  0.14129145264E+01  0.20031793377E+01  0.14200000000E+01 0. -1.
         -4   -1    0    0    0  501 -0.00000000000E+00 -0.00000000000E+00 -0.57983100193E+02  0.58000485412E+02  0.14200000000E+01 0.  1.
       1023    2    1    2    0    0  0.00000000000E+00  0.00000000000E+00 -0.56570185667E+02  0.60003664750E+02  0.20006345918E+02 0.  0.
        -11    1    3    3    0    0 -0.71383797628E+01 -0.70039061849E+01 -0.28971002783E+02  0.30648493764E+02  0.51100000000E-03 0. -1.
         11    1    3    3    0    0  0.71383797628E+01  0.70039061849E+01 -0.27599182883E+02  0.29355170985E+02  0.51100000000E-03 0.  1.
<mgrwt>
<rscale>  0 0.20006346E+02</rscale>
<asrwt>0</asrwt>
<pdfrwt beam="1">  1        4 0.26411382E-03 0.20006346E+02</pdfrwt>
<pdfrwt beam="2">  1       -4 0.89672177E-02 0.20006346E+02</pdfrwt>
<totfact> 0.11111620E+06</totfact>
</mgrwt>
</event>
<event>
 5    1  0.1154861E-006  0.2000550E+02  0.7818608E-02  0.1745219E+00
          4   -1    0    0  501    0  0.00000000000E+00  0.00000000000E+00  0.16690058772E+01  0.21913421956E+01  0.14200000000E+01 0.  1.
         -4   -1    0    0    0  501 -0.00000000000E+00 -0.00000000000E+00 -0.51303812720E+02  0.51323460518E+02  0.14200000000E+01 0. -1.
       1023    2    1    2    0    0  0.00000000000E+00  0.00000000000E+00 -0.49634806843E+02  0.53514802714E+02  0.20005500724E+02 0.  0.
        -11    1    3    3    0    0 -0.97940934477E+01 -0.20295353905E+01 -0.25107171724E+02  0.27026160523E+02  0.51100000000E-03 0. -1.
         11    1    3    3    0    0  0.97940934477E+01  0.20295353905E+01 -0.24527635118E+02  0.26488642191E+02  0.51100000000E-03 0.  1.
<mgrwt>
<rscale>  0 0.20005501E+02</rscale>
<asrwt>0</asrwt>
<pdfrwt beam="1">  1        4 0.29846126E-03 0.20005501E+02</pdfrwt>
<pdfrwt beam="2">  1       -4 0.79345843E-02 0.20005501E+02</pdfrwt>
<totfact> 0.11368580E+06</totfact>
</mgrwt>
</event>
<event>
 4    1  0.1606523E-006  0.2032026E+02  0.7818608E-02  0.1739033E+00
          4   -1    0    0  501    0  0.00000000000E+00  0.00000000000E+00  0.14885500206E+02  0.14953077154E+02  0.14200000000E+01 0. -1.
         -4   -1    0    0    0  501 -0.00000000000E+00 -0.00000000000E+00 -0.67777951326E+01  0.69249481485E+01  0.14200000000E+01 0.  1.
        -11    1    1    2    0    0 -0.96560317388E+01  0.29425036822E+01  0.28117202305E+01  0.10478694946E+02  0.51100000000E-03 0. -1.
         11    1    1    2    0    0  0.96560317388E+01 -0.29425036822E+01  0.52959848429E+01  0.11399330357E+02  0.51100000000E-03 0.  1.
<mgrwt>
<rscale>  0 0.20320264E+02</rscale>
<asrwt>0</asrwt>
<pdfrwt beam="1">  1        4 0.23065946E-02 0.20320264E+02</pdfrwt>
<pdfrwt beam="2">  1       -4 0.10592554E-02 0.20320264E+02</pdfrwt>
<totfact> 0.12490509E+06</totfact>
</mgrwt>
</event>
<event>
 5    1  0.1154861E-006  0.2000293E+02  0.7818608E-02  0.1745270E+00
          4   -1    0    0  501    0  0.00000000000E+00  0.00000000000E+00  0.49138413767E+01  0.51149034278E+01  0.14200000000E+01 0.  1.
         -4   -1    0    0    0  501 -0.00000000000E+00 -0.00000000000E+00 -0.19721418782E+02  0.19772474776E+02  0.14200000000E+01 0. -1.
       1023    2    1    2    0    0  0.00000000000E+00  0.00000000000E+00 -0.14807577405E+02  0.24887378204E+02  0.20002930917E+02 0.  0.
        -11    1    3    3    0    0  0.34535753540E+01 -0.93858822477E+01 -0.75104029262E+01  0.12507122797E+02  0.51100000000E-03 0. -1.
         11    1    3    3    0    0 -0.34535753540E+01  0.93858822477E+01 -0.72971744790E+01  0.12380255407E+02  0.51100000000E-03 0.  1.
<mgrwt>
<rscale>  0 0.20002931E+02</rscale>
<asrwt>0</asrwt>
<pdfrwt beam="1">  1        4 0.77536930E-03 0.20002931E+02</pdfrwt>
<pdfrwt beam="2">  1       -4 0.30534581E-02 0.20002931E+02</pdfrwt>
<totfact> 0.12728088E+06</totfact>
</mgrwt>
</event>
<event>
 5    1  0.1154861E-006  0.2000068E+02  0.7818608E-02  0.1745314E+00
         -4   -1    0    0    0  501 -0.00000000000E+00  0.00000000000E+00  0.15165482752E+01  0.20775751902E+01  0.14200000000E+01 0.  1.
          4   -1    0    0  501    0  0.00000000000E+00 -0.00000000000E+00 -0.55078590376E+02  0.55096892089E+02  0.14200000000E+01 0. -1.
       1023    2    1    2    0    0  0.00000000000E+00  0.00000000000E+00 -0.53562042101E+02  0.57174467279E+02  0.20000683853E+02 0.  0.
        -11    1    3    3    0    0  0.92609267823E+01 -0.37729718668E+01 -0.26546042515E+02  0.28367101632E+02  0.51100000000E-03 0.  1.
         11    1    3    3    0    0 -0.92609267823E+01  0.37729718668E+01 -0.27015999586E+02  0.28807365647E+02  0.51100000000E-03 0. -1.
<mgrwt>
<rscale>  0 0.20000684E+02</rscale>
<asrwt>0</asrwt>
<pdfrwt beam="2">  1        4 0.85181917E-02 0.20000684E+02</pdfrwt>
<pdfrwt beam="1">  1       -4 0.27787890E-03 0.20000684E+02</pdfrwt>
<totfact> 0.11227799E+06</totfact>
</mgrwt>
</event>
<event>
 5    1  0.1154861E-006  0.2000732E+02  0.7818608E-02  0.1745183E+00
          4   -1    0    0  501    0  0.00000000000E+00  0.00000000000E+00  0.93789143863E+02  0.93799892892E+02  0.14200000000E+01 0. -1.
         -4   -1    0    0    0  501 -0.00000000000E+00 -0.00000000000E+00 -0.57887186788E+00  0.15334577397E+01  0.14200000000E+01 0.  1.
       1023    2    1    2    0    0  0.00000000000E+00  0.00000000000E+00  0.93210271996E+02  0.95333350632E+02  0.20007322091E+02 0.  0.
        -11    1    3    3    0    0 -0.13114429077E+00  0.10001615233E+02  0.47339119209E+02  0.48384312683E+02  0.51100000000E-03 0.  1.
         11    1    3    3    0    0  0.13114429077E+00 -0.10001615233E+02  0.45871152787E+02  0.46949037949E+02  0.51100000000E-03 0. -1.
<mgrwt>
<rscale>  0 0.20007322E+02</rscale>
<asrwt>0</asrwt>
<pdfrwt beam="1">  1        4 0.14503355E-01 0.20007322E+02</pdfrwt>
<pdfrwt beam="2">  1       -4 0.16331375E-03 0.20007322E+02</pdfrwt>
<totfact> 0.99289383E+05</totfact>
</mgrwt>
</event>
<event>
 4    1  0.1154861E-006  0.2002544E+02  0.7818608E-02  0.1744823E+00
          4   -1    0    0  501    0  0.00000000000E+00  0.00000000000E+00  0.60746213853E+01  0.62383832019E+01  0.14200000000E+01 0. -1.
         -4   -1    0    0    0  501 -0.00000000000E+00 -0.00000000000E+00 -0.16088890967E+02  0.16151433761E+02  0.14200000000E+01 0.  1.
        -11    1    1    2    0    0  0.14057682593E+01 -0.99124321156E+01 -0.48409896883E+01  0.11120596939E+02  0.51100000000E-03 0. -1.
         11    1    1    2    0    0 -0.14057682593E+01  0.99124321156E+01 -0.51732798930E+01  0.11269220024E+02  0.51100000000E-03 0.  1.
<mgrwt>
<rscale>  0 0.20025442E+02</rscale>
<asrwt>0</asrwt>
<pdfrwt beam="1">  1        4 0.95196519E-03 0.20025442E+02</pdfrwt>
<pdfrwt beam="2">  1       -4 0.24926220E-02 0.20025442E+02</pdfrwt>
<totfact> 0.12840328E+06</totfact>
</mgrwt>
</event>
<event>
 5    1  0.1161088E-006  0.2000065E+02  0.7818608E-02  0.1745315E+00
         -4   -1    0    0    0  501 -0.00000000000E+00  0.00000000000E+00  0.35718232783E+01  0.38437379634E+01  0.14200000000E+01 0.  1.
          4   -1    0    0  501    0  0.00000000000E+00 -0.00000000000E+00 -0.26680583871E+02  0.26718344928E+02  0.14200000000E+01 0. -1.
       1023    2    1    2    0    0  0.00000000000E+00  0.00000000000E+00 -0.23108760593E+02  0.30562082891E+02  0.20000652353E+02 0.  0.
        -11    1    3    3    0    0  0.50106893691E+01  0.86541235962E+01 -0.11439418194E+02  0.15194115705E+02  0.51100000000E-03 0. -1.
         11    1    3    3    0    0 -0.50106893691E+01 -0.86541235962E+01 -0.11669342398E+02  0.15367967186E+02  0.51100000000E-03 0.  1.
<mgrwt>
<rscale>  0 0.20000652E+02</rscale>
<asrwt>0</asrwt>
<pdfrwt beam="2">  1        4 0.41285263E-02 0.20000652E+02</pdfrwt>
<pdfrwt beam="1">  1       -4 0.57333250E-03 0.20000652E+02</pdfrwt>
<totfact> 0.12425662E+06</totfact>
</mgrwt>
</event>
<event>
 5    1  0.1208525E-006  0.2000118E+02  0.7818608E-02  0.1745305E+00
          4   -1    0    0  501    0  0.00000000000E+00  0.00000000000E+00  0.45087190866E+01  0.47270442987E+01  0.14200000000E+01 0.  1.
         -4   -1    0    0    0  501 -0.00000000000E+00 -0.00000000000E+00 -0.21415117477E+02  0.21462144734E+02  0.14200000000E+01 0. -1.
       1023    2    1    2    0    0  0.00000000000E+00  0.00000000000E+00 -0.16906398391E+02  0.26189189032E+02  0.20001182856E+02 0.  0.
        -11    1    3    3    0    0  0.74536843449E+01 -0.66674023118E+01 -0.84700054177E+01  0.13105443752E+02  0.51100000000E-03 0. -1.
         11    1    3    3    0    0 -0.74536843449E+01  0.66674023118E+01 -0.84363929730E+01  0.13083745280E+02  0.51100000000E-03 0.  1.
<mgrwt>
<rscale>  0 0.20001183E+02</rscale>
<asrwt>0</asrwt>
<pdfrwt beam="1">  1        4 0.71406083E-03 0.20001183E+02</pdfrwt>
<pdfrwt beam="2">  1       -4 0.33150451E-02 0.20001183E+02</pdfrwt>
<totfact> 0.12658244E+06</totfact>
</mgrwt>
</event>
<event>
 5    1  0.1195542E-006  0.2000114E+02  0.7818608E-02  0.1745305E+00
         -4   -1    0    0    0  501 -0.00000000000E+00  0.00000000000E+00  0.17411182199E+02  0.17468991544E+02  0.14200000000E+01 0.  1.
          4   -1    0    0  501    0  0.00000000000E+00 -0.00000000000E+00 -0.55878094656E+01  0.57654153904E+01  0.14200000000E+01 0. -1.
       1023    2    1    2    0    0  0.00000000000E+00  0.00000000000E+00  0.11823372733E+02  0.23234406934E+02  0.20001138038E+02 0.  0.
        -11    1    3    3    0    0 -0.98021611430E+01 -0.19813703329E+01  0.58460866406E+01  0.11583821508E+02  0.51100000000E-03 0.  1.
         11    1    3    3    0    0  0.98021611430E+01  0.19813703329E+01  0.59772860925E+01  0.11650585426E+02  0.51100000000E-03 0. -1.
<mgrwt>
<rscale>  0 0.20001138E+02</rscale>
<asrwt>0</asrwt>
<pdfrwt beam="2">  1        4 0.87777187E-03 0.20001138E+02</pdfrwt>
<pdfrwt beam="1">  1       -4 0.26967523E-02 0.20001138E+02</pdfrwt>
<totfact> 0.12823697E+06</totfact>
</mgrwt>
</event>
<event>
 5    1  0.1154861E-006  0.2000073E+02  0.7818608E-02  0.1745314E+00
          4   -1    0    0  501    0  0.00000000000E+00  0.00000000000E+00  0.70014154201E+00  0.15832239825E+01  0.14200000000E+01 0. -1.
         -4   -1    0    0    0  501 -0.00000000000E+00 -0.00000000000E+00 -0.86705213933E+02  0.86716841058E+02  0.14200000000E+01 0.  1.
       1023    2    1    2    0    0  0.00000000000E+00  0.00000000000E+00 -0.86005072391E+02  0.88300065041E+02  0.20000725219E+02 0.  0.
        -11    1    3    3    0    0 -0.88471030180E+01 -0.46621901703E+01 -0.43010262038E+02  0.44157557562E+02  0.51100000000E-03 0. -1.
         11    1    3    3    0    0  0.88471030180E+01  0.46621901703E+01 -0.42994810353E+02  0.44142507479E+02  0.51100000000E-03 0.  1.
<mgrwt>
<rscale>  0 0.20000725E+02</rscale>
<asrwt>0</asrwt>
<pdfrwt beam="1">  1        4 0.17653796E-03 0.20000725E+02</pdfrwt>
<pdfrwt beam="2">  1       -4 0.13408082E-01 0.20000725E+02</pdfrwt>
<totfact> 0.10147058E+06</totfact>
</mgrwt>
</event>
<event>
 5    1  0.1154861E-006  0.2000244E+02  0.7818608E-02  0.1745279E+00
          4   -1    0    0  501    0  0.00000000000E+00  0.00000000000E+00  0.32326107962E+00  0.14563302255E+01  0.14200000000E+01 0. -1.
         -4   -1    0    0    0  501 -0.00000000000E+00 -0.00000000000E+00 -0.11127234219E+03  0.11128140248E+03  0.14200000000E+01 0.  1.
       1023    2    1    2    0    0  0.00000000000E+00  0.00000000000E+00 -0.11094908111E+03  0.11273773270E+03  0.20002444222E+02 0.  0.
        -11    1    3    3    0    0  0.83177024737E+01 -0.55512718742E+01 -0.54607782194E+02  0.55515859628E+02  0.51100000000E-03 0. -1.
         11    1    3    3    0    0 -0.83177024737E+01  0.55512718742E+01 -0.56341298920E+02  0.57221873074E+02  0.51100000000E-03 0.  1.
<mgrwt>
<rscale>  0 0.20002444E+02</rscale>
<asrwt>0</asrwt>
<pdfrwt beam="1">  1        4 0.13758867E-03 0.20002444E+02</pdfrwt>
<pdfrwt beam="2">  1       -4 0.17206667E-01 0.20002444E+02</pdfrwt>
<totfact> 0.94503923E+05</totfact>
</mgrwt>
</event>
<event>
 5    1  0.1154861E-006  0.2000035E+02  0.7818608E-02  0.1745321E+00
         -4   -1    0    0    0  501 -0.00000000000E+00  0.00000000000E+00  0.21338616377E+01  0.25631553774E+01  0.14200000000E+01 0. -1.
          4   -1    0    0  501    0  0.00000000000E+00 -0.00000000000E+00 -0.42139379346E+02  0.42163297922E+02  0.14200000000E+01 0.  1.
       1023    2    1    2    0    0  0.00000000000E+00  0.00000000000E+00 -0.40005517708E+02  0.44726453299E+02  0.20000354438E+02 0.  0.
        -11    1    3    3    0    0 -0.60656107180E+01  0.79505853400E+01 -0.20025511747E+02  0.22383577945E+02  0.51100000000E-03 0.  1.
         11    1    3    3    0    0  0.60656107180E+01 -0.79505853400E+01 -0.19980005961E+02  0.22342875354E+02  0.51100000000E-03 0. -1.
<mgrwt>
<rscale>  0 0.20000354E+02</rscale>
<asrwt>0</asrwt>
<pdfrwt beam="2">  1        4 0.65178434E-02 0.20000354E+02</pdfrwt>
<pdfrwt beam="1">  1       -4 0.36314892E-03 0.20000354E+02</pdfrwt>
<totfact> 0.11747500E+06</totfact>
</mgrwt>
</event>
<event>
 5    1  0.1154861E-006  0.2000030E+02  0.7818608E-02  0.1745322E+00
         -4   -1    0    0    0  501 -0.00000000000E+00  0.00000000000E+00  0.35714061720E+02  0.35742280349E+02  0.14200000000E+01 0. -1.
          4   -1    0    0  501    0  0.00000000000E+00 -0.00000000000E+00 -0.25887658692E+01  0.29526443615E+01  0.14200000000E+01 0.  1.
       1023    2    1    2    0    0  0.00000000000E+00  0.00000000000E+00  0.33125295851E+02  0.38694924710E+02  0.20000299326E+02 0.  0.
        -11    1    3    3    0    0  0.94225908111E+01  0.33489595806E+01  0.16470975027E+02  0.19268984573E+02  0.51100000000E-03 0. -1.
         11    1    3    3    0    0 -0.94225908111E+01 -0.33489595806E+01  0.16654320823E+02  0.19425940137E+02  0.51100000000E-03 0.  1.
<mgrwt>
<rscale>  0 0.20000299E+02</rscale>
<asrwt>0</asrwt>
<pdfrwt beam="2">  1        4 0.42843302E-03 0.20000299E+02</pdfrwt>
<pdfrwt beam="1">  1       -4 0.55246320E-02 0.20000299E+02</pdfrwt>
<totfact> 0.12023428E+06</totfact>
</mgrwt>
</event>
<event>
 5    1  0.1181419E-006  0.2000103E+02  0.7818608E-02  0.1745308E+00
          4   -1    0    0  501    0  0.00000000000E+00  0.00000000000E+00  0.43078375644E+01  0.45358422020E+01  0.14200000000E+01 0. -1.
         -4   -1    0    0    0  501 -0.00000000000E+00 -0.00000000000E+00 -0.22366239124E+02  0.22411270659E+02  0.14200000000E+01 0.  1.
       1023    2    1    2    0    0  0.00000000000E+00  0.00000000000E+00 -0.18058401560E+02  0.26947112861E+02  0.20001025590E+02 0.  0.
        -11    1    3    3    0    0  0.76178050149E+01  0.64789350611E+01 -0.89591531061E+01  0.13426614518E+02  0.51100000000E-03 0. -1.
         11    1    3    3    0    0 -0.76178050149E+01 -0.64789350611E+01 -0.90992484537E+01  0.13520498343E+02  0.51100000000E-03 0.  1.
<mgrwt>
<rscale>  0 0.20001026E+02</rscale>
<asrwt>0</asrwt>
<pdfrwt beam="1">  1        4 0.68374703E-03 0.20001026E+02</pdfrwt>
<pdfrwt beam="2">  1       -4 0.34619626E-02 0.20001026E+02</pdfrwt>
<totfact> 0.12617052E+06</totfact>
</mgrwt>
</event>
<event>
 5    1  0.1194907E-006  0.2000067E+02  0.7818608E-02  0.1745315E+00
         -4   -1    0    0    0  501 -0.00000000000E+00  0.00000000000E+00  0.16623247655E+02  0.16683787418E+02  0.14200000000E+01 0. -1.
          4   -1    0    0  501    0  0.00000000000E+00 -0.00000000000E+00 -0.58596439404E+01  0.60292476404E+01  0.14200000000E+01 0.  1.
       1023    2    1    2    0    0  0.00000000000E+00  0.00000000000E+00  0.10763603714E+02  0.22713035058E+02  0.20000669904E+02 0.  0.
        -11    1    3    3    0    0  0.95162128120E+01 -0.30732463043E+01  0.53141421128E+01  0.11324453885E+02  0.51100000000E-03 0. -1.
         11    1    3    3    0    0 -0.95162128120E+01  0.30732463043E+01  0.54494616016E+01  0.11388581173E+02  0.51100000000E-03 0.  1.
<mgrwt>
<rscale>  0 0.20000670E+02</rscale>
<asrwt>0</asrwt>
<pdfrwt beam="2">  1        4 0.91918703E-03 0.20000670E+02</pdfrwt>
<pdfrwt beam="1">  1       -4 0.25751261E-02 0.20000670E+02</pdfrwt>
<totfact> 0.12854157E+06</totfact>
</mgrwt>
</event>
<event>
 5    1  0.1189782E-006  0.2000116E+02  0.7818608E-02  0.1745305E+00
         -4   -1    0    0    0  501 -0.00000000000E+00  0.00000000000E+00  0.39434368751E+02  0.39459926999E+02  0.14200000000E+01 0.  1.
          4   -1    0    0  501    0  0.00000000000E+00 -0.00000000000E+00 -0.23088491183E+01  0.27105689903E+01  0.14200000000E+01 0. -1.
       1023    2    1    2    0    0  0.00000000000E+00  0.00000000000E+00  0.37125519632E+02  0.42170495989E+02  0.20001163066E+02 0.  0.
        -11    1    3    3    0    0  0.95910980163E+01  0.28308366866E+01  0.18364600995E+02  0.20910795477E+02  0.51100000000E-03 0.  1.
         11    1    3    3    0    0 -0.95910980163E+01 -0.28308366866E+01  0.18760918637E+02  0.21259700513E+02  0.51100000000E-03 0. -1.
<mgrwt>
<rscale>  0 0.20001163E+02</rscale>
<asrwt>0</asrwt>
<pdfrwt beam="2">  1        4 0.38807513E-03 0.20001163E+02</pdfrwt>
<pdfrwt beam="1">  1       -4 0.60996931E-02 0.20001163E+02</pdfrwt>
<totfact> 0.11861370E+06</totfact>
</mgrwt>
</event>
<event>
 5    1  0.1154861E-006  0.2000025E+02  0.7818608E-02  0.1745323E+00
         -4   -1    0    0    0  501 -0.00000000000E+00  0.00000000000E+00  0.80655721983E+00  0.16330751816E+01  0.14200000000E+01 0. -1.
          4   -1    0    0  501    0  0.00000000000E+00 -0.00000000000E+00 -0.81146775733E+02  0.81159199182E+02  0.14200000000E+01 0.  1.
       1023    2    1    2    0    0  0.00000000000E+00  0.00000000000E+00 -0.80340218513E+02  0.82792274364E+02  0.20000249587E+02 0.  0.
        -11    1    3    3    0    0  0.15385604602E+01 -0.98810584272E+01 -0.40155951080E+02  0.41382398327E+02  0.51100000000E-03 0.  1.
         11    1    3    3    0    0 -0.15385604602E+01  0.98810584272E+01 -0.40184267434E+02  0.41409876037E+02  0.51100000000E-03 0. -1.
<mgrwt>
<rscale>  0 0.20000250E+02</rscale>
<asrwt>0</asrwt>
<pdfrwt beam="2">  1        4 0.12548649E-01 0.20000250E+02</pdfrwt>
<pdfrwt beam="1">  1       -4 0.18861974E-03 0.20000250E+02</pdfrwt>
<totfact> 0.10320571E+06</totfact>
</mgrwt>
</event>
<event>
 5    1  0.1224697E-006  0.2000111E+02  0.7818608E-02  0.1745306E+00
         -4   -1    0    0    0  501 -0.00000000000E+00  0.00000000000E+00  0.55216131803E+01  0.57012816202E+01  0.14200000000E+01 0. -1.
          4   -1    0    0  501    0  0.00000000000E+00 -0.00000000000E+00 -0.17613995031E+02  0.17671140907E+02  0.14200000000E+01 0.  1.
       1023    2    1    2    0    0  0.00000000000E+00  0.00000000000E+00 -0.12092381851E+02  0.23372422527E+02  0.20001110868E+02 0.  0.
        -11    1    3    3    0    0  0.38156286169E+01 -0.92434802413E+01 -0.59284040712E+01  0.11625270913E+02  0.51100000000E-03 0.  1.
         11    1    3    3    0    0 -0.38156286169E+01  0.92434802413E+01 -0.61639777797E+01  0.11747151614E+02  0.51100000000E-03 0. -1.
<mgrwt>
<rscale>  0 0.20001111E+02</rscale>
<asrwt>0</asrwt>
<pdfrwt beam="2">  1        4 0.27280618E-02 0.20001111E+02</pdfrwt>
<pdfrwt beam="1">  1       -4 0.86769544E-03 0.20001111E+02</pdfrwt>
<totfact> 0.12815870E+06</totfact>
</mgrwt>
</event>
<event>
 5    1  0.1154861E-006  0.2000083E+02  0.7818608E-02  0.1745312E+00
          4   -1    0    0  501    0  0.00000000000E+00  0.00000000000E+00  0.64531533773E+02  0.64547155252E+02  0.14200000000E+01 0. -1.
         -4   -1    0    0    0  501 -0.00000000000E+00 -0.00000000000E+00 -0.12052720338E+01  0.18625468251E+01  0.14200000000E+01 0.  1.
       1023    2    1    2    0    0  0.00000000000E+00  0.00000000000E+00  0.63326261740E+02  0.66409702077E+02  0.20000827585E+02 0.  0.
        -11    1    3    3    0    0  0.94077269214E+01 -0.33911744001E+01  0.31484753107E+02  0.33034755458E+02  0.51100000000E-03 0. -1.
         11    1    3    3    0    0 -0.94077269214E+01  0.33911744001E+01  0.31841508632E+02  0.33374946620E+02  0.51100000000E-03 0.  1.
<mgrwt>
<rscale>  0 0.20000828E+02</rscale>
<asrwt>0</asrwt>
<pdfrwt beam="1">  1        4 0.99796925E-02 0.20000828E+02</pdfrwt>
<pdfrwt beam="2">  1       -4 0.23718765E-03 0.20000828E+02</pdfrwt>
<totfact> 0.10878511E+06</totfact>
</mgrwt>
</event>
<event>
 5    1  0.1154861E-006  0.2000039E+02  0.7818608E-02  0.1745320E+00
         -4   -1    0    0    0  501 -0.00000000000E+00  0.00000000000E+00  0.57065421066E+01  0.58805631376E+01  0.14200000000E+01 0.  1.
          4   -1    0    0  501    0  0.00000000000E+00 -0.00000000000E+00 -0.17057270719E+02  0.17116275424E+02  0.14200000000E+01 0. -1.
       1023    2    1    2    0    0  0.00000000000E+00  0.00000000000E+00 -0.11350728613E+02  0.22996838562E+02  0.20000388591E+02 0.  0.
        -11    1    3    3    0    0  0.66647850430E+01  0.74554478514E+01 -0.57083573732E+01  0.11514703926E+02  0.51100000000E-03 0.  1.
         11    1    3    3    0    0 -0.66647850430E+01 -0.74554478514E+01 -0.56423712395E+01  0.11482134636E+02  0.51100000000E-03 0. -1.
<mgrwt>
<rscale>  0 0.20000389E+02</rscale>
<asrwt>0</asrwt>
<pdfrwt beam="2">  1        4 0.26421205E-02 0.20000389E+02</pdfrwt>
<pdfrwt beam="1">  1       -4 0.89585462E-03 0.20000389E+02</pdfrwt>
<totfact> 0.12838249E+06</totfact>
</mgrwt>
</event>
<event>
 5    1  0.1154861E-006  0.2000040E+02  0.7818608E-02  0.1745320E+00
         -4   -1    0    0    0  501 -0.00000000000E+00  0.00000000000E+00  0.74416610492E+01  0.75759302513E+01  0.14200000000E+01 0. -1.
          4   -1    0    0  501    0  0.00000000000E+00 -0.00000000000E+00 -0.13145405848E+02  0.13221879401E+02  0.14200000000E+01 0.  1.
       1023    2    1    2    0    0  0.00000000000E+00  0.00000000000E+00 -0.57037447985E+01  0.20797809652E+02  0.20000404536E+02 0.  0.
        -11    1    3    3    0    0  0.89298877475E+01  0.45012342039E+01 -0.28452463887E+01  0.10397087660E+02  0.51100000000E-03 0.  1.
         11    1    3    3    0    0 -0.89298877475E+01 -0.45012342039E+01 -0.28584984097E+01  0.10400721992E+02  0.51100000000E-03 0. -1.
<mgrwt>
<rscale>  0 0.20000405E+02</rscale>
<asrwt>0</asrwt>
<pdfrwt beam="2">  1        4 0.20385811E-02 0.20000405E+02</pdfrwt>
<pdfrwt beam="1">  1       -4 0.11610819E-02 0.20000405E+02</pdfrwt>
<totfact> 0.12966171E+06</totfact>
</mgrwt>
</event>
<event>
 5    1  0.1154861E-006  0.2000222E+02  0.7818608E-02  0.1745284E+00
          4   -1    0    0  501    0  0.00000000000E+00  0.00000000000E+00  0.41152286681E+02  0.41176778639E+02  0.14200000000E+01 0. -1.
         -4   -1    0    0    0  501 -0.00000000000E+00 -0.00000000000E+00 -0.21956771653E+01  0.26148419100E+01  0.14200000000E+01 0.  1.
       1023    2    1    2    0    0  0.00000000000E+00  0.00000000000E+00  0.38956609516E+02  0.43791620549E+02  0.20002215011E+02 0.  0.
        -11    1    3    3    0    0  0.87948130256E+01  0.47609908106E+01  0.19303412122E+02  0.21740227447E+02  0.51100000000E-03 0. -1.
         11    1    3    3    0    0 -0.87948130256E+01 -0.47609908106E+01  0.19653197394E+02  0.22051393101E+02  0.51100000000E-03 0.  1.
<mgrwt>
<rscale>  0 0.20002215E+02</rscale>
<asrwt>0</asrwt>
<pdfrwt beam="1">  1        4 0.63652481E-02 0.20002215E+02</pdfrwt>
<pdfrwt beam="2">  1       -4 0.37192395E-03 0.20002215E+02</pdfrwt>
<totfact> 0.11786936E+06</totfact>
</mgrwt>
</event>
<event>
 5    1  0.1172476E-006  0.2000144E+02  0.7818608E-02  0.1745299E+00
          4   -1    0    0  501    0  0.00000000000E+00  0.00000000000E+00  0.74075207120E+01  0.75423977022E+01  0.14200000000E+01 0.  1.
         -4   -1    0    0    0  501 -0.00000000000E+00 -0.00000000000E+00 -0.13206647007E+02  0.13282767978E+02  0.14200000000E+01 0. -1.
       1023    2    1    2    0    0  0.00000000000E+00  0.00000000000E+00 -0.57991262946E+01  0.20825165680E+02  0.20001441444E+02 0.  0.
        -11    1    3    3    0    0  0.40729598472E+01  0.91336381810E+01 -0.29468924109E+01  0.10425762489E+02  0.51100000000E-03 0. -1.
         11    1    3    3    0    0 -0.40729598472E+01 -0.91336381810E+01 -0.28522338836E+01  0.10399403191E+02  0.51100000000E-03 0.  1.
<mgrwt>
<rscale>  0 0.20001441E+02</rscale>
<asrwt>0</asrwt>
<pdfrwt beam="1">  1        4 0.11558492E-02 0.20001441E+02</pdfrwt>
<pdfrwt beam="2">  1       -4 0.20480225E-02 0.20001441E+02</pdfrwt>
<totfact> 0.12963180E+06</totfact>
</mgrwt>
</event>
<event>
 5    1  0.1154861E-006  0.2000021E+02  0.7818608E-02  0.1745324E+00
         -4   -1    0    0    0  501 -0.00000000000E+00  0.00000000000E+00  0.78178572109E+00  0.16209839338E+01  0.14200000000E+01 0. -1.
          4   -1    0    0  501    0  0.00000000000E+00 -0.00000000000E+00 -0.82391543461E+02  0.82403779245E+02  0.14200000000E+01 0.  1.
       1023    2    1    2    0    0  0.00000000000E+00  0.00000000000E+00 -0.81609757740E+02  0.84024763179E+02  0.20000206722E+02 0.  0.
        -11    1    3    3    0    0 -0.38707317927E+01 -0.92205977201E+01 -0.40767292423E+02  0.41975875437E+02  0.51100000000E-03 0. -1.
         11    1    3    3    0    0  0.38707317927E+01  0.92205977201E+01 -0.40842465317E+02  0.42048887742E+02  0.51100000000E-03 0.  1.
<mgrwt>
<rscale>  0 0.20000207E+02</rscale>
<asrwt>0</asrwt>
<pdfrwt beam="2">  1        4 0.12741113E-01 0.20000207E+02</pdfrwt>
<pdfrwt beam="1">  1       -4 0.18576971E-03 0.20000207E+02</pdfrwt>
<totfact> 0.10281328E+06</totfact>
</mgrwt>
</event>
<event>
 5    1  0.1154861E-006  0.2000018E+02  0.7818608E-02  0.1745324E+00
          4   -1    0    0  501    0  0.00000000000E+00  0.00000000000E+00  0.12806906932E+02  0.12885389601E+02  0.14200000000E+01 0.  1.
         -4   -1    0    0    0  501 -0.00000000000E+00 -0.00000000000E+00 -0.76404783215E+01  0.77713132083E+01  0.14200000000E+01 0. -1.
       1023    2    1    2    0    0  0.00000000000E+00  0.00000000000E+00  0.51664286109E+01  0.20656702809E+02  0.20000184658E+02 0.  0.
        -11    1    3    3    0    0  0.87666947468E+01 -0.48111213439E+01  0.25784856694E+01  0.10327168730E+02  0.51100000000E-03 0.  1.
         11    1    3    3    0    0 -0.87666947468E+01  0.48111213439E+01  0.25879429415E+01  0.10329534079E+02  0.51100000000E-03 0. -1.
<mgrwt>
<rscale>  0 0.20000185E+02</rscale>
<asrwt>0</asrwt>
<pdfrwt beam="1">  1        4 0.19863947E-02 0.20000185E+02</pdfrwt>
<pdfrwt beam="2">  1       -4 0.11915596E-02 0.20000185E+02</pdfrwt>
<totfact> 0.12974812E+06</totfact>
</mgrwt>
</event>
<event>
 5    1  0.1154861E-006  0.2000009E+02  0.7818608E-02  0.1745326E+00
         -4   -1    0    0    0  501 -0.00000000000E+00  0.00000000000E+00  0.21166994480E+01  0.25488853550E+01  0.14200000000E+01 0. -1.
          4   -1    0    0  501    0  0.00000000000E+00 -0.00000000000E+00 -0.42422281967E+02  0.42446041126E+02  0.14200000000E+01 0.  1.
       1023    2    1    2    0    0  0.00000000000E+00  0.00000000000E+00 -0.40305582519E+02  0.44994926481E+02  0.20000085671E+02 0.  0.
        -11    1    3    3    0    0 -0.88821753305E+01  0.45943200563E+01 -0.20167209020E+02  0.22510378391E+02  0.51100000000E-03 0.  1.
         11    1    3    3    0    0  0.88821753305E+01 -0.45943200563E+01 -0.20138373499E+02  0.22484548090E+02  0.51100000000E-03 0. -1.
<mgrwt>
<rscale>  0 0.20000086E+02</rscale>
<asrwt>0</asrwt>
<pdfrwt beam="2">  1        4 0.65615770E-02 0.20000086E+02</pdfrwt>
<pdfrwt beam="1">  1       -4 0.36071880E-03 0.20000086E+02</pdfrwt>
<totfact> 0.11735930E+06</totfact>
</mgrwt>
</event>
<event>
 5    1  0.1226323E-006  0.2000107E+02  0.7818608E-02  0.1745307E+00
          4   -1    0    0  501    0  0.00000000000E+00  0.00000000000E+00  0.74304530729E+01  0.75649212070E+01  0.14200000000E+01 0. -1.
         -4   -1    0    0    0  501 -0.00000000000E+00 -0.00000000000E+00 -0.13165891952E+02  0.13242247200E+02  0.14200000000E+01 0.  1.
       1023    2    1    2    0    0  0.00000000000E+00  0.00000000000E+00 -0.57354388793E+01  0.20807168407E+02  0.20001074920E+02 0.  0.
        -11    1    3    3    0    0  0.96397951454E+01  0.26614124719E+01 -0.28214004042E+01  0.10390816488E+02  0.51100000000E-03 0.  1.
         11    1    3    3    0    0 -0.96397951454E+01 -0.26614124719E+01 -0.29140384751E+01  0.10416351918E+02  0.51100000000E-03 0. -1.
<mgrwt>
<rscale>  0 0.20001075E+02</rscale>
<asrwt>0</asrwt>
<pdfrwt beam="1">  1        4 0.11593638E-02 0.20001075E+02</pdfrwt>
<pdfrwt beam="2">  1       -4 0.20417390E-02 0.20001075E+02</pdfrwt>
<totfact> 0.12964730E+06</totfact>
</mgrwt>
</event>
<event>
 5    1  0.1154861E-006  0.2000155E+02  0.7818608E-02  0.1745297E+00
         -4   -1    0    0    0  501 -0.00000000000E+00  0.00000000000E+00  0.27099712658E+01  0.30594679703E+01  0.14200000000E+01 0.  1.
          4   -1    0    0  501    0  0.00000000000E+00 -0.00000000000E+00 -0.34305695578E+02  0.34335071707E+02  0.14200000000E+01 0. -1.
       1023    2    1    2    0    0  0.00000000000E+00  0.00000000000E+00 -0.31595724312E+02  0.37394539677E+02  0.20001545011E+02 0.  0.
        -11    1    3    3    0    0 -0.96034596473E+01  0.27906099565E+01 -0.15725228934E+02  0.18635899936E+02  0.51100000000E-03 0. -1.
         11    1    3    3    0    0  0.96034596473E+01 -0.27906099565E+01 -0.15870495378E+02  0.18758639741E+02  0.51100000000E-03 0.  1.
<mgrwt>
<rscale>  0 0.20001545E+02</rscale>
<asrwt>0</asrwt>
<pdfrwt beam="2">  1        4 0.53069431E-02 0.20001545E+02</pdfrwt>
<pdfrwt beam="1">  1       -4 0.44606274E-03 0.20001545E+02</pdfrwt>
<totfact> 0.12083757E+06</totfact>
</mgrwt>
</event>
<event>
 5    1  0.1154861E-006  0.2000088E+02  0.7818608E-02  0.1745311E+00
          4   -1    0    0  501    0  0.00000000000E+00  0.00000000000E+00  0.27035094667E+01  0.30537458042E+01  0.14200000000E+01 0.  1.
         -4   -1    0    0    0  501 -0.00000000000E+00 -0.00000000000E+00 -0.34376037042E+02  0.34405353111E+02  0.14200000000E+01 0. -1.
       1023    2    1    2    0    0  0.00000000000E+00  0.00000000000E+00 -0.31672527575E+02  0.37459098915E+02  0.20000877194E+02 0.  0.
        -11    1    3    3    0    0 -0.29608222039E+01  0.95520825784E+01 -0.15827445539E+02  0.18722093426E+02  0.51100000000E-03 0. -1.
         11    1    3    3    0    0  0.29608222039E+01 -0.95520825784E+01 -0.15845082036E+02  0.18737005489E+02  0.51100000000E-03 0.  1.
<mgrwt>
<rscale>  0 0.20000877E+02</rscale>
<asrwt>0</asrwt>
<pdfrwt beam="1">  1        4 0.44512090E-03 0.20000877E+02</pdfrwt>
<pdfrwt beam="2">  1       -4 0.53178171E-02 0.20000877E+02</pdfrwt>
<totfact> 0.12081483E+06</totfact>
</mgrwt>
</event>
<event>
 5    1  0.1154861E-006  0.2000078E+02  0.7818608E-02  0.1745312E+00
          4   -1    0    0  501    0  0.00000000000E+00  0.00000000000E+00  0.26481119200E+00  0.14444808643E+01  0.14200000000E+01 0.  1.
         -4   -1    0    0    0  501 -0.00000000000E+00 -0.00000000000E+00 -0.11582965047E+03  0.11583835431E+03  0.14200000000E+01 0. -1.
       1023    2    1    2    0    0  0.00000000000E+00  0.00000000000E+00 -0.11556483928E+03  0.11728283517E+03  0.20000783683E+02 0.  0.
        -11    1    3    3    0    0  0.35380994438E+01 -0.93535828898E+01 -0.57860250495E+02  0.58718108350E+02  0.51100000000E-03 0.  1.
         11    1    3    3    0    0 -0.35380994438E+01  0.93535828898E+01 -0.57704588784E+02  0.58564726820E+02  0.51100000000E-03 0. -1.
<mgrwt>
<rscale>  0 0.20000784E+02</rscale>
<asrwt>0</asrwt>
<pdfrwt beam="1">  1        4 0.13215362E-03 0.20000784E+02</pdfrwt>
<pdfrwt beam="2">  1       -4 0.17911347E-01 0.20000784E+02</pdfrwt>
<totfact> 0.93340577E+05</totfact>
</mgrwt>
</event>
<event>
 5    1  0.1154861E-006  0.2000155E+02  0.7818608E-02  0.1745297E+00
         -4   -1    0    0    0  501 -0.00000000000E+00  0.00000000000E+00  0.56755101753E+00  0.15292201141E+01  0.14200000000E+01 0. -1.
          4   -1    0    0  501    0  0.00000000000E+00 -0.00000000000E+00 -0.94430058777E+02  0.94440734858E+02  0.14200000000E+01 0.  1.
       1023    2    1    2    0    0  0.00000000000E+00  0.00000000000E+00 -0.93862507759E+02  0.95969954972E+02  0.20001547304E+02 0.  0.
        -11    1    3    3    0    0 -0.18139353827E+01  0.98348483885E+01 -0.47072695570E+02  0.48123313195E+02  0.51100000000E-03 0.  1.
         11    1    3    3    0    0  0.18139353827E+01 -0.98348483885E+01 -0.46789812189E+02  0.47846641777E+02  0.51100000000E-03 0. -1.
<mgrwt>
<rscale>  0 0.20001547E+02</rscale>
<asrwt>0</asrwt>
<pdfrwt beam="2">  1        4 0.14602490E-01 0.20001547E+02</pdfrwt>
<pdfrwt beam="1">  1       -4 0.16211140E-03 0.20001547E+02</pdfrwt>
<totfact> 0.99160103E+05</totfact>
</mgrwt>
</event>
<event>
 5    1  0.1154861E-006  0.2001235E+02  0.7818608E-02  0.1745083E+00
          4   -1    0    0  501    0  0.00000000000E+00  0.00000000000E+00  0.10309264528E+03  0.10310242437E+03  0.14200000000E+01 0.  1.
         -4   -1    0    0    0  501 -0.00000000000E+00 -0.00000000000E+00 -0.43698315390E+00  0.14857167552E+01  0.14200000000E+01 0. -1.
       1023    2    1    2    0    0  0.00000000000E+00  0.00000000000E+00  0.10265566213E+03  0.10458814113E+03  0.20012353618E+02 0.  0.
        -11    1    3    3    0    0 -0.86292758772E+01 -0.50590136881E+01  0.49989761738E+02  0.50980724794E+02  0.51100000000E-03 0. -1.
         11    1    3    3    0    0  0.86292758772E+01  0.50590136881E+01  0.52665900389E+02  0.53607416331E+02  0.51100000000E-03 0.  1.
<mgrwt>
<rscale>  0 0.20012354E+02</rscale>
<asrwt>0</asrwt>
<pdfrwt beam="1">  1        4 0.15941833E-01 0.20012354E+02</pdfrwt>
<pdfrwt beam="2">  1       -4 0.14865221E-03 0.20012354E+02</pdfrwt>
<totfact> 0.96606211E+05</totfact>
</mgrwt>
</event>
<event>
 5    1  0.1154861E-006  0.2000120E+02  0.7818608E-02  0.1745304E+00
          4   -1    0    0  501    0  0.00000000000E+00  0.00000000000E+00  0.27451749073E+00  0.14462917592E+01  0.14200000000E+01 0. -1.
         -4   -1    0    0    0  501 -0.00000000000E+00 -0.00000000000E+00 -0.11505921945E+03  0.11506798156E+03  0.14200000000E+01 0.  1.
       1023    2    1    2    0    0  0.00000000000E+00  0.00000000000E+00 -0.11478470196E+03  0.11651427332E+03  0.20001202048E+02 0.  0.
        -11    1    3    3    0    0  0.32000904190E+01 -0.94743814445E+01 -0.57898123199E+02  0.58755401051E+02  0.51100000000E-03 0. -1.
         11    1    3    3    0    0 -0.32000904190E+01  0.94743814445E+01 -0.56886578758E+02  0.57758872266E+02  0.51100000000E-03 0.  1.
<mgrwt>
<rscale>  0 0.20001202E+02</rscale>
<asrwt>0</asrwt>
<pdfrwt beam="1">  1        4 0.13304404E-03 0.20001202E+02</pdfrwt>
<pdfrwt beam="2">  1       -4 0.17792217E-01 0.20001202E+02</pdfrwt>
<totfact> 0.93533786E+05</totfact>
</mgrwt>
</event>
<event>
 5    1  0.1154861E-006  0.2000556E+02  0.7818608E-02  0.1745217E+00
         -4   -1    0    0    0  501 -0.00000000000E+00  0.00000000000E+00  0.31760011940E+02  0.31791740412E+02  0.14200000000E+01 0. -1.
          4   -1    0    0  501    0  0.00000000000E+00 -0.00000000000E+00 -0.29552566741E+01  0.32787104188E+01  0.14200000000E+01 0.  1.
       1023    2    1    2    0    0  0.00000000000E+00  0.00000000000E+00  0.28804755266E+02  0.35070450831E+02  0.20005564115E+02 0.  0.
        -11    1    3    3    0    0 -0.48900832448E+01  0.87241057065E+01  0.14085305491E+02  0.17274801462E+02  0.51100000000E-03 0.  1.
         11    1    3    3    0    0  0.48900832448E+01 -0.87241057065E+01  0.14719449775E+02  0.17795649369E+02  0.51100000000E-03 0. -1.
<mgrwt>
<rscale>  0 0.20005564E+02</rscale>
<asrwt>0</asrwt>
<pdfrwt beam="2">  1        4 0.48197655E-03 0.20005564E+02</pdfrwt>
<pdfrwt beam="1">  1       -4 0.49134777E-02 0.20005564E+02</pdfrwt>
<totfact> 0.12191640E+06</totfact>
</mgrwt>
</event>
<event>
 5    1  0.1154861E-006  0.2000132E+02  0.7818608E-02  0.1745302E+00
          4   -1    0    0  501    0  0.00000000000E+00  0.00000000000E+00  0.62179609142E+02  0.62195821347E+02  0.14200000000E+01 0. -1.
         -4   -1    0    0    0  501 -0.00000000000E+00 -0.00000000000E+00 -0.12753463701E+01  0.19086404490E+01  0.14200000000E+01 0.  1.
       1023    2    1    2    0    0  0.00000000000E+00  0.00000000000E+00  0.60904262772E+02  0.64104461797E+02  0.20001319916E+02 0.  0.
        -11    1    3    3    0    0 -0.72597595916E+01 -0.68781133669E+01  0.30370638177E+02  0.31974805963E+02  0.51100000000E-03 0.  1.
         11    1    3    3    0    0  0.72597595916E+01  0.68781133669E+01  0.30533624595E+02  0.32129655833E+02  0.51100000000E-03 0. -1.
<mgrwt>
<rscale>  0 0.20001320E+02</rscale>
<asrwt>0</asrwt>
<pdfrwt beam="1">  1        4 0.96160546E-02 0.20001320E+02</pdfrwt>
<pdfrwt beam="2">  1       -4 0.24616919E-03 0.20001320E+02</pdfrwt>
<totfact> 0.10962578E+06</totfact>
</mgrwt>
</event>
<event>
 5    1  0.1154861E-006  0.2000027E+02  0.7818608E-02  0.1745323E+00
          4   -1    0    0  501    0  0.00000000000E+00  0.00000000000E+00  0.11274202884E+02  0.11363276405E+02  0.14200000000E+01 0. -1.
         -4   -1    0    0    0  501 -0.00000000000E+00 -0.00000000000E+00 -0.86882038768E+01  0.88034815047E+01  0.14200000000E+01 0.  1.
       1023    2    1    2    0    0  0.00000000000E+00  0.00000000000E+00  0.25859990070E+01  0.20166757910E+02  0.20000268342E+02 0.  0.
        -11    1    3    3    0    0 -0.78949123981E+01 -0.61377042791E+01  0.13336786347E+01  0.10088595272E+02  0.51100000000E-03 0. -1.
         11    1    3    3    0    0  0.78949123981E+01  0.61377042791E+01  0.12523203722E+01  0.10078162638E+02  0.51100000000E-03 0.  1.
<mgrwt>
<rscale>  0 0.20000268E+02</rscale>
<asrwt>0</asrwt>
<pdfrwt beam="1">  1        4 0.17502121E-02 0.20000268E+02</pdfrwt>
<pdfrwt beam="2">  1       -4 0.13523661E-02 0.20000268E+02</pdfrwt>
<totfact> 0.13003770E+06</totfact>
</mgrwt>
</event>
<event>
 5    1  0.1157402E-006  0.2000076E+02  0.7818608E-02  0.1745313E+00
          4   -1    0    0  501    0  0.00000000000E+00  0.00000000000E+00  0.29210544626E+01  0.32479161278E+01  0.14200000000E+01 0.  1.
         -4   -1    0    0    0  501 -0.00000000000E+00 -0.00000000000E+00 -0.32079373982E+02  0.32110786896E+02  0.14200000000E+01 0. -1.
       1023    2    1    2    0    0  0.00000000000E+00  0.00000000000E+00 -0.29158319520E+02  0.35358703024E+02  0.20000757044E+02 0.  0.
        -11    1    3    3    0    0 -0.22422561999E+00  0.99975990441E+01 -0.14707941957E+02  0.17785550895E+02  0.51100000000E-03 0. -1.
         11    1    3    3    0    0  0.22422561999E+00 -0.99975990441E+01 -0.14450377563E+02  0.17573152129E+02  0.51100000000E-03 0.  1.
<mgrwt>
<rscale>  0 0.20000757E+02</rscale>
<asrwt>0</asrwt>
<pdfrwt beam="1">  1        4 0.47695260E-03 0.20000757E+02</pdfrwt>
<pdfrwt beam="2">  1       -4 0.49628477E-02 0.20000757E+02</pdfrwt>
<totfact> 0.12183419E+06</totfact>
</mgrwt>
</event>
<event>
 5    1  0.1154861E-006  0.2000044E+02  0.7818608E-02  0.1745319E+00
         -4   -1    0    0    0  501 -0.00000000000E+00  0.00000000000E+00  0.40459832429E+01  0.42879342814E+01  0.14200000000E+01 0.  1.
          4   -1    0    0  501    0  0.00000000000E+00 -0.00000000000E+00 -0.23735588763E+02  0.23778027125E+02  0.14200000000E+01 0. -1.
       1023    2    1    2    0    0  0.00000000000E+00  0.00000000000E+00 -0.19689605520E+02  0.28065961406E+02  0.20000440598E+02 0.  0.
        -11    1    3    3    0    0 -0.44959569113E+01 -0.89325683397E+01 -0.98444283482E+01  0.14032718035E+02  0.51100000000E-03 0. -1.
         11    1    3    3    0    0  0.44959569113E+01  0.89325683397E+01 -0.98451771721E+01  0.14033243371E+02  0.51100000000E-03 0.  1.
<mgrwt>
<rscale>  0 0.20000441E+02</rscale>
<asrwt>0</asrwt>
<pdfrwt beam="2">  1        4 0.36735051E-02 0.20000441E+02</pdfrwt>
<pdfrwt beam="1">  1       -4 0.64433508E-03 0.20000441E+02</pdfrwt>
<totfact> 0.12557454E+06</totfact>
</mgrwt>
</event>
<event>
 5    1  0.1198137E-006  0.2000213E+02  0.7818608E-02  0.1745286E+00
         -4   -1    0    0    0  501 -0.00000000000E+00  0.00000000000E+00  0.11145350820E+02  0.11235445914E+02  0.14200000000E+01 0. -1.
          4   -1    0    0  501    0  0.00000000000E+00 -0.00000000000E+00 -0.87908337654E+01  0.89047828885E+01  0.14200000000E+01 0.  1.
       1023    2    1    2    0    0  0.00000000000E+00  0.00000000000E+00  0.23545170544E+01  0.20140228803E+02  0.20002126529E+02 0.  0.
        -11    1    3    3    0    0  0.77304812397E+01 -0.63437426368E+01  0.13118049100E+01  0.10085843704E+02  0.51100000000E-03 0.  1.
         11    1    3    3    0    0 -0.77304812397E+01  0.63437426368E+01  0.10427121444E+01  0.10054385099E+02  0.51100000000E-03 0. -1.
<mgrwt>
<rscale>  0 0.20002127E+02</rscale>
<asrwt>0</asrwt>
<pdfrwt beam="2">  1        4 0.13681317E-02 0.20002127E+02</pdfrwt>
<pdfrwt beam="1">  1       -4 0.17303651E-02 0.20002127E+02</pdfrwt>
<totfact> 0.13002889E+06</totfact>
</mgrwt>
</event>
<event>
 5    1  0.1154861E-006  0.2000520E+02  0.7818608E-02  0.1745225E+00
          4   -1    0    0  501    0  0.00000000000E+00  0.00000000000E+00  0.20712785808E+02  0.20761403997E+02  0.14200000000E+01 0. -1.
         -4   -1    0    0    0  501 -0.00000000000E+00 -0.00000000000E+00 -0.46704941680E+01  0.48815894720E+01  0.14200000000E+01 0.  1.
       1023    2    1    2    0    0  0.00000000000E+00  0.00000000000E+00  0.16042291640E+02  0.25642993469E+02  0.20005199149E+02 0.  0.
        -11    1    3    3    0    0  0.70768954212E+01  0.70680120232E+01  0.78763787314E+01  0.12730930247E+02  0.51100000000E-03 0. -1.
         11    1    3    3    0    0 -0.70768954212E+01 -0.70680120232E+01  0.81659129083E+01  0.12912063222E+02  0.51100000000E-03 0.  1.
<mgrwt>
<rscale>  0 0.20005199E+02</rscale>
<asrwt>0</asrwt>
<pdfrwt beam="1">  1        4 0.32065604E-02 0.20005199E+02</pdfrwt>
<pdfrwt beam="2">  1       -4 0.73851553E-03 0.20005199E+02</pdfrwt>
<totfact> 0.12683155E+06</totfact>
</mgrwt>
</event>
<event>
 5    1  0.1154861E-006  0.2000052E+02  0.7818608E-02  0.1745318E+00
          4   -1    0    0  501    0  0.00000000000E+00  0.00000000000E+00  0.15450772244E+02  0.15515887436E+02  0.14200000000E+01 0.  1.
         -4   -1    0    0    0  501 -0.00000000000E+00 -0.00000000000E+00 -0.63147697071E+01  0.64724583006E+01  0.14200000000E+01 0. -1.
       1023    2    1    2    0    0  0.00000000000E+00  0.00000000000E+00  0.91360025364E+01  0.21988345736E+02  0.20000520140E+02 0.  0.
        -11    1    3    3    0    0 -0.61116979983E+01  0.79150138352E+01  0.46449959637E+01  0.11026163621E+02  0.51100000000E-03 0. -1.
         11    1    3    3    0    0  0.61116979983E+01 -0.79150138352E+01  0.44910065727E+01  0.10962182115E+02  0.51100000000E-03 0.  1.
<mgrwt>
<rscale>  0 0.20000520E+02</rscale>
<asrwt>0</asrwt>
<pdfrwt beam="1">  1        4 0.23941806E-02 0.20000520E+02</pdfrwt>
<pdfrwt beam="2">  1       -4 0.98864179E-03 0.20000520E+02</pdfrwt>
<totfact> 0.12896216E+06</totfact>
</mgrwt>
</event>
<event>
 5    1  0.1154861E-006  0.2000042E+02  0.7818608E-02  0.1745320E+00
         -4   -1    0    0    0  501 -0.00000000000E+00  0.00000000000E+00  0.27554283408E+01  0.30998040811E+01  0.14200000000E+01 0. -1.
          4   -1    0    0  501    0  0.00000000000E+00 -0.00000000000E+00 -0.33798745259E+02  0.33828561617E+02  0.14200000000E+01 0.  1.
       1023    2    1    2    0    0  0.00000000000E+00  0.00000000000E+00 -0.31043316918E+02  0.36928365698E+02  0.20000416692E+02 0.  0.
        -11    1    3    3    0    0 -0.10067466000E+01  0.99493277201E+01 -0.15450007894E+02  0.18403950798E+02  0.51100000000E-03 0.  1.
         11    1    3    3    0    0  0.10067466000E+01 -0.99493277201E+01 -0.15593309024E+02  0.18524414900E+02  0.51100000000E-03 0. -1.
<mgrwt>
<rscale>  0 0.20000417E+02</rscale>
<asrwt>0</asrwt>
<pdfrwt beam="2">  1        4 0.52285907E-02 0.20000417E+02</pdfrwt>
<pdfrwt beam="1">  1       -4 0.45269608E-03 0.20000417E+02</pdfrwt>
<totfact> 0.12107535E+06</totfact>
</mgrwt>
</event>
<event>
 5    1  0.1233729E-006  0.2000121E+02  0.7818608E-02  0.1745304E+00
          4   -1    0    0  501    0  0.00000000000E+00  0.00000000000E+00  0.18978731257E+02  0.19031779742E+02  0.14200000000E+01 0.  1.
         -4   -1    0    0    0  501 -0.00000000000E+00 -0.00000000000E+00 -0.51123829829E+01  0.53059268525E+01  0.14200000000E+01 0. -1.
       1023    2    1    2    0    0  0.00000000000E+00  0.00000000000E+00  0.13866348274E+02  0.24337706594E+02  0.20001208658E+02 0.  0.
        -11    1    3    3    0    0  0.99376648685E+01  0.11148489944E+01  0.67997937553E+01  0.12092860154E+02  0.51100000000E-03 0. -1.
         11    1    3    3    0    0 -0.99376648685E+01 -0.11148489944E+01  0.70665545190E+01  0.12244846440E+02  0.51100000000E-03 0.  1.
<mgrwt>
<rscale>  0 0.20001209E+02</rscale>
<asrwt>0</asrwt>
<pdfrwt beam="1">  1        4 0.29387735E-02 0.20001209E+02</pdfrwt>
<pdfrwt beam="2">  1       -4 0.80548909E-03 0.20001209E+02</pdfrwt>
<totfact> 0.12761162E+06</totfact>
</mgrwt>
</event>
<event>
 5    1  0.1154861E-006  0.2000197E+02  0.7818608E-02  0.1745289E+00
          4   -1    0    0  501    0  0.00000000000E+00  0.00000000000E+00  0.58368292692E+02  0.58385563213E+02  0.14200000000E+01 0.  1.
         -4   -1    0    0    0  501 -0.00000000000E+00 -0.00000000000E+00 -0.13988048381E+01  0.19932523611E+01  0.14200000000E+01 0. -1.
       1023    2    1    2    0    0  0.00000000000E+00  0.00000000000E+00  0.56969487853E+02  0.60378815574E+02  0.20001970500E+02 0.  0.
        -11    1    3    3    0    0 -0.50351620439E+01  0.86409924336E+01  0.28454759747E+02  0.30161116683E+02  0.51100000000E-03 0. -1.
         11    1    3    3    0    0  0.50351620439E+01 -0.86409924336E+01  0.28514728106E+02  0.30217698891E+02  0.51100000000E-03 0.  1.
<mgrwt>
<rscale>  0 0.20001971E+02</rscale>
<asrwt>0</asrwt>
<pdfrwt beam="1">  1        4 0.90267919E-02 0.20001971E+02</pdfrwt>
<pdfrwt beam="2">  1       -4 0.26225600E-03 0.20001971E+02</pdfrwt>
<totfact> 0.11102134E+06</totfact>
</mgrwt>
</event>
<event>
 4    1  0.3179471E-006  0.2024835E+02  0.7818608E-02  0.1740434E+00
         -4   -1    0    0    0  501 -0.00000000000E+00  0.00000000000E+00  0.77209085465E+00  0.16163305008E+01  0.14200000000E+01 0.  1.
          4   -1    0    0  501    0  0.00000000000E+00 -0.00000000000E+00 -0.84977587008E+02  0.84989450485E+02  0.14200000000E+01 0. -1.
        -11    1    1    2    0    0  0.66527986912E+01 -0.74914722754E+01 -0.48326065414E+02  0.49353728187E+02  0.51100000000E-03 0.  1.
         11    1    1    2    0    0 -0.66527986912E+01  0.74914722754E+01 -0.35879430739E+02  0.37252052798E+02  0.51100000000E-03 0. -1.
<mgrwt>
<rscale>  0 0.20248351E+02</rscale>
<asrwt>0</asrwt>
<pdfrwt beam="2">  1        4 0.13139324E-01 0.20248351E+02</pdfrwt>
<pdfrwt beam="1">  1       -4 0.18463736E-03 0.20248351E+02</pdfrwt>
<totfact> 0.99512123E+05</totfact>
</mgrwt>
</event>
<event>
 5    1  0.1154861E-006  0.2000068E+02  0.7818608E-02  0.1745315E+00
          4   -1    0    0  501    0  0.00000000000E+00  0.00000000000E+00  0.78799443629E+02  0.78812237097E+02  0.14200000000E+01 0. -1.
         -4   -1    0    0    0  501 -0.00000000000E+00 -0.00000000000E+00 -0.85491207149E+00  0.16574904675E+01  0.14200000000E+01 0.  1.
       1023    2    1    2    0    0  0.00000000000E+00  0.00000000000E+00  0.77944531558E+02  0.80469727565E+02  0.20000676354E+02 0.  0.
        -11    1    3    3    0    0 -0.93703170102E+01  0.34931516856E+01  0.38800915517E+02  0.40068890611E+02  0.51100000000E-03 0. -1.
         11    1    3    3    0    0  0.93703170102E+01 -0.34931516856E+01  0.39143616040E+02  0.40400836953E+02  0.51100000000E-03 0.  1.
<mgrwt>
<rscale>  0 0.20000676E+02</rscale>
<asrwt>0</asrwt>
<pdfrwt beam="1">  1        4 0.12185713E-01 0.20000676E+02</pdfrwt>
<pdfrwt beam="2">  1       -4 0.19424584E-03 0.20000676E+02</pdfrwt>
<totfact> 0.10395130E+06</totfact>
</mgrwt>
</event>
<event>
 5    1  0.1154861E-006  0.2000067E+02  0.7818608E-02  0.1745315E+00
          4   -1    0    0  501    0  0.00000000000E+00  0.00000000000E+00  0.42453726149E+00  0.14821038717E+01  0.14200000000E+01 0. -1.
         -4   -1    0    0    0  501 -0.00000000000E+00 -0.00000000000E+00 -0.10383837541E+03  0.10384808428E+03  0.14200000000E+01 0.  1.
       1023    2    1    2    0    0  0.00000000000E+00  0.00000000000E+00 -0.10341383815E+03  0.10533018815E+03  0.20000665354E+02 0.  0.
        -11    1    3    3    0    0 -0.79861686751E+01 -0.60189484190E+01 -0.51732294577E+02  0.52690007901E+02  0.51100000000E-03 0. -1.
         11    1    3    3    0    0  0.79861686751E+01  0.60189484190E+01 -0.51681543575E+02  0.52640180250E+02  0.51100000000E-03 0.  1.
<mgrwt>
<rscale>  0 0.20000665E+02</rscale>
<asrwt>0</asrwt>
<pdfrwt beam="1">  1        4 0.14741162E-03 0.20000665E+02</pdfrwt>
<pdfrwt beam="2">  1       -4 0.16057224E-01 0.20000665E+02</pdfrwt>
<totfact> 0.96513986E+05</totfact>
</mgrwt>
</event>
<event>
 5    1  0.1154861E-006  0.2000013E+02  0.7818608E-02  0.1745326E+00
         -4   -1    0    0    0  501 -0.00000000000E+00  0.00000000000E+00  0.26495438766E+02  0.26533463313E+02  0.14200000000E+01 0.  1.
          4   -1    0    0  501    0  0.00000000000E+00 -0.00000000000E+00 -0.35984332829E+01  0.38684780071E+01  0.14200000000E+01 0. -1.
       1023    2    1    2    0    0  0.00000000000E+00  0.00000000000E+00  0.22897005483E+02  0.30401941320E+02  0.20000129398E+02 0.  0.
        -11    1    3    3    0    0 -0.52215962333E+01 -0.85285247966E+01  0.11414809693E+02  0.15175594981E+02  0.51100000000E-03 0.  1.
         11    1    3    3    0    0  0.52215962333E+01  0.85285247966E+01  0.11482195789E+02  0.15226346339E+02  0.51100000000E-03 0. -1.
<mgrwt>
<rscale>  0 0.20000129E+02</rscale>
<asrwt>0</asrwt>
<pdfrwt beam="2">  1        4 0.57730276E-03 0.20000129E+02</pdfrwt>
<pdfrwt beam="1">  1       -4 0.40999190E-02 0.20000129E+02</pdfrwt>
<totfact> 0.12434636E+06</totfact>
</mgrwt>
</event>
<event>
 5    1  0.1171219E-006  0.2000282E+02  0.7818608E-02  0.1745272E+00
         -4   -1    0    0    0  501 -0.00000000000E+00  0.00000000000E+00  0.35897282777E+01  0.38603819898E+01  0.14200000000E+01 0.  1.
          4   -1    0    0  501    0  0.00000000000E+00 -0.00000000000E+00 -0.26562498202E+02  0.26600426890E+02  0.14200000000E+01 0. -1.
       1023    2    1    2    0    0  0.00000000000E+00  0.00000000000E+00 -0.22972769925E+02  0.30460808880E+02  0.20002817792E+02 0.  0.
        -11    1    3    3    0    0  0.96654299562E+01 -0.25652710471E+01 -0.11736739857E+02  0.15419215756E+02  0.51100000000E-03 0. -1.
         11    1    3    3    0    0 -0.96654299562E+01  0.25652710471E+01 -0.11236030068E+02  0.15041593125E+02  0.51100000000E-03 0.  1.
<mgrwt>
<rscale>  0 0.20002818E+02</rscale>
<asrwt>0</asrwt>
<pdfrwt beam="2">  1        4 0.41102752E-02 0.20002818E+02</pdfrwt>
<pdfrwt beam="1">  1       -4 0.57600302E-03 0.20002818E+02</pdfrwt>
<totfact> 0.12428184E+06</totfact>
</mgrwt>
</event>
<event>
 5    1  0.1154861E-006  0.2000070E+02  0.7818608E-02  0.1745314E+00
         -4   -1    0    0    0  501 -0.00000000000E+00  0.00000000000E+00  0.21132092636E+01  0.25459877045E+01  0.14200000000E+01 0.  1.
          4   -1    0    0  501    0  0.00000000000E+00 -0.00000000000E+00 -0.42483121551E+02  0.42506846704E+02  0.14200000000E+01 0. -1.
       1023    2    1    2    0    0  0.00000000000E+00  0.00000000000E+00 -0.40369912288E+02  0.45052834409E+02  0.20000701741E+02 0.  0.
        -11    1    3    3    0    0  0.99812591193E+01  0.61733743410E+00 -0.20228760339E+02  0.22565668265E+02  0.51100000000E-03 0. -1.
         11    1    3    3    0    0 -0.99812591193E+01 -0.61733743410E+00 -0.20141151948E+02  0.22487166144E+02  0.51100000000E-03 0.  1.
<mgrwt>
<rscale>  0 0.20000702E+02</rscale>
<asrwt>0</asrwt>
<pdfrwt beam="2">  1        4 0.65709799E-02 0.20000702E+02</pdfrwt>
<pdfrwt beam="1">  1       -4 0.36022481E-03 0.20000702E+02</pdfrwt>
<totfact> 0.11732640E+06</totfact>
</mgrwt>
</event>
<event>
 5    1  0.1154861E-006  0.2000042E+02  0.7818608E-02  0.1745320E+00
          4   -1    0    0  501    0  0.00000000000E+00  0.00000000000E+00  0.29556915216E+01  0.32791023727E+01  0.14200000000E+01 0.  1.
         -4   -1    0    0    0  501 -0.00000000000E+00 -0.00000000000E+00 -0.31739292587E+02  0.31771041750E+02  0.14200000000E+01 0. -1.
       1023    2    1    2    0    0  0.00000000000E+00  0.00000000000E+00 -0.28783601065E+02  0.35050144123E+02  0.20000422815E+02 0.  0.
        -11    1    3    3    0    0 -0.80271657937E+00 -0.99678905899E+01 -0.14335524304E+02  0.17478857344E+02  0.51100000000E-03 0.  1.
         11    1    3    3    0    0  0.80271657937E+00  0.99678905899E+01 -0.14448076761E+02  0.17571286779E+02  0.51100000000E-03 0. -1.
<mgrwt>
<rscale>  0 0.20000423E+02</rscale>
<asrwt>0</asrwt>
<pdfrwt beam="1">  1        4 0.48204180E-03 0.20000423E+02</pdfrwt>
<pdfrwt beam="2">  1       -4 0.49102879E-02 0.20000423E+02</pdfrwt>
<totfact> 0.12198996E+06</totfact>
</mgrwt>
</event>
<event>
 5    1  0.1154861E-006  0.2000178E+02  0.7818608E-02  0.1745293E+00
          4   -1    0    0  501    0  0.00000000000E+00  0.00000000000E+00  0.23202091735E+01  0.27202519385E+01  0.14200000000E+01 0. -1.
         -4   -1    0    0    0  501 -0.00000000000E+00 -0.00000000000E+00 -0.39272085237E+02  0.39297749030E+02  0.14200000000E+01 0.  1.
       1023    2    1    2    0    0  0.00000000000E+00  0.00000000000E+00 -0.36951876063E+02  0.42018000969E+02  0.20001781441E+02 0.  0.
        -11    1    3    3    0    0 -0.95275365946E+01  0.30395445234E+01 -0.18326943260E+02  0.20877970064E+02  0.51100000000E-03 0.  1.
         11    1    3    3    0    0  0.95275365946E+01 -0.30395445234E+01 -0.18624932803E+02  0.21140030905E+02  0.51100000000E-03 0. -1.
<mgrwt>
<rscale>  0 0.20001781E+02</rscale>
<asrwt>0</asrwt>
<pdfrwt beam="1">  1        4 0.38970194E-03 0.20001781E+02</pdfrwt>
<pdfrwt beam="2">  1       -4 0.60746055E-02 0.20001781E+02</pdfrwt>
<totfact> 0.11867566E+06</totfact>
</mgrwt>
</event>
<event>
 4    1  0.1154861E-006  0.2001330E+02  0.7818608E-02  0.1745064E+00
         -4   -1    0    0    0  501 -0.00000000000E+00  0.00000000000E+00  0.51971564111E+01  0.53876557761E+01  0.14200000000E+01 0.  1.
          4   -1    0    0  501    0  0.00000000000E+00 -0.00000000000E+00 -0.18702227768E+02  0.18756058314E+02  0.14200000000E+01 0. -1.
        -11    1    1    2    0    0  0.97002497676E+01  0.24342354084E+01 -0.71574326310E+01  0.12298340933E+02  0.51100000000E-03 0.  1.
         11    1    1    2    0    0 -0.97002497676E+01 -0.24342354084E+01 -0.63476387256E+01  0.11845373157E+02  0.51100000000E-03 0. -1.
<mgrwt>
<rscale>  0 0.20013295E+02</rscale>
<asrwt>0</asrwt>
<pdfrwt beam="2">  1        4 0.28960604E-02 0.20013295E+02</pdfrwt>
<pdfrwt beam="1">  1       -4 0.81835714E-03 0.20013295E+02</pdfrwt>
<totfact> 0.12756377E+06</totfact>
</mgrwt>
</event>
<event>
 5    1  0.1154861E-006  0.2000031E+02  0.7818608E-02  0.1745322E+00
         -4   -1    0    0    0  501 -0.00000000000E+00  0.00000000000E+00  0.85493164863E+01  0.86664417371E+01  0.14200000000E+01 0.  1.
          4   -1    0    0  501    0  0.00000000000E+00 -0.00000000000E+00 -0.11456369425E+02  0.11544037439E+02  0.14200000000E+01 0.  1.
       1023    2    1    2    0    0  0.00000000000E+00  0.00000000000E+00 -0.29070529382E+01  0.20210479176E+02  0.20000312791E+02 0.  0.
        -11    1    3    3    0    0  0.55623685288E+01  0.83103917103E+01 -0.14293239122E+01  0.10101758319E+02  0.51100000000E-03 0. -1.
         11    1    3    3    0    0 -0.55623685288E+01 -0.83103917103E+01 -0.14777290260E+01  0.10108720857E+02  0.51100000000E-03 0.  1.
<mgrwt>
<rscale>  0 0.20000313E+02</rscale>
<asrwt>0</asrwt>
<pdfrwt beam="2">  1        4 0.17782717E-02 0.20000313E+02</pdfrwt>
<pdfrwt beam="1">  1       -4 0.13310328E-02 0.20000313E+02</pdfrwt>
<totfact> 0.13001103E+06</totfact>
</mgrwt>
</event>
<event>
 5    1  0.1154861E-006  0.2000022E+02  0.7818608E-02  0.1745324E+00
          4   -1    0    0  501    0  0.00000000000E+00  0.00000000000E+00  0.11270041039E+02  0.11359147196E+02  0.14200000000E+01 0. -1.
         -4   -1    0    0    0  501 -0.00000000000E+00 -0.00000000000E+00 -0.86913873473E+01  0.88066233042E+01  0.14200000000E+01 0.  1.
       1023    2    1    2    0    0  0.00000000000E+00  0.00000000000E+00  0.25786536918E+01  0.20165770500E+02  0.20000221124E+02 0.  0.
        -11    1    3    3    0    0 -0.48397256624E+01 -0.87508335345E+01  0.12422611806E+01  0.10076866831E+02  0.51100000000E-03 0. -1.
         11    1    3    3    0    0  0.48397256624E+01  0.87508335345E+01  0.13363925112E+01  0.10088903669E+02  0.51100000000E-03 0.  1.
<mgrwt>
<rscale>  0 0.20000221E+02</rscale>
<asrwt>0</asrwt>
<pdfrwt beam="1">  1        4 0.17495711E-02 0.20000221E+02</pdfrwt>
<pdfrwt beam="2">  1       -4 0.13528551E-02 0.20000221E+02</pdfrwt>
<totfact> 0.13003892E+06</totfact>
</mgrwt>
</event>
<event>
 5    1  0.1183115E-006  0.2000148E+02  0.7818608E-02  0.1745299E+00
          4   -1    0    0  501    0  0.00000000000E+00  0.00000000000E+00  0.10846882868E+02  0.10939436364E+02  0.14200000000E+01 0. -1.
         -4   -1    0    0    0  501 -0.00000000000E+00 -0.00000000000E+00 -0.90331784567E+01  0.91441081047E+01  0.14200000000E+01 0.  1.
       1023    2    1    2    0    0  0.00000000000E+00  0.00000000000E+00  0.18137044114E+01  0.20083544468E+02  0.20001480813E+02 0.  0.
        -11    1    3    3    0    0  0.56048904189E+01  0.82822373926E+01  0.97462419300E+00  0.10047892586E+02  0.51100000000E-03 0.  1.
         11    1    3    3    0    0 -0.56048904189E+01 -0.82822373926E+01  0.83908021837E+00  0.10035651883E+02  0.51100000000E-03 0. -1.
<mgrwt>
<rscale>  0 0.20001481E+02</rscale>
<asrwt>0</asrwt>
<pdfrwt beam="1">  1        4 0.16844038E-02 0.20001481E+02</pdfrwt>
<pdfrwt beam="2">  1       -4 0.14053723E-02 0.20001481E+02</pdfrwt>
<totfact> 0.13007121E+06</totfact>
</mgrwt>
</event>
<event>
 4    1  0.1154861E-006  0.2002803E+02  0.7818608E-02  0.1744771E+00
         -4   -1    0    0    0  501 -0.00000000000E+00  0.00000000000E+00  0.20847160010E+02  0.20895465548E+02  0.14200000000E+01 0. -1.
          4   -1    0    0  501    0  0.00000000000E+00 -0.00000000000E+00 -0.46502921960E+01  0.48622646481E+01  0.14200000000E+01 0.  1.
        -11    1    1    2    0    0  0.88250132491E+01  0.47155518528E+01  0.75788081583E+01  0.12552116215E+02  0.51100000000E-03 0.  1.
         11    1    1    2    0    0 -0.88250132491E+01 -0.47155518528E+01  0.86180596556E+01  0.13205613981E+02  0.51100000000E-03 0. -1.
<mgrwt>
<rscale>  0 0.20028034E+02</rscale>
<asrwt>0</asrwt>
<pdfrwt beam="2">  1        4 0.73545094E-03 0.20028034E+02</pdfrwt>
<pdfrwt beam="1">  1       -4 0.32272768E-02 0.20028034E+02</pdfrwt>
<totfact> 0.12647405E+06</totfact>
</mgrwt>
</event>
<event>
 5    1  0.1154861E-006  0.2000047E+02  0.7818608E-02  0.1745319E+00
          4   -1    0    0  501    0  0.00000000000E+00  0.00000000000E+00  0.13991183389E+02  0.14063058437E+02  0.14200000000E+01 0. -1.
         -4   -1    0    0    0  501 -0.00000000000E+00 -0.00000000000E+00 -0.69858922205E+01  0.71287509507E+01  0.14200000000E+01 0.  1.
       1023    2    1    2    0    0  0.00000000000E+00  0.00000000000E+00  0.70052911681E+01  0.21191809388E+02  0.20000467014E+02 0.  0.
        -11    1    3    3    0    0  0.34072081339E+01 -0.94018579063E+01  0.34752075553E+01  0.10586834615E+02  0.51100000000E-03 0. -1.
         11    1    3    3    0    0 -0.34072081339E+01  0.94018579063E+01  0.35300836127E+01  0.10604974773E+02  0.51100000000E-03 0.  1.
<mgrwt>
<rscale>  0 0.20000467E+02</rscale>
<asrwt>0</asrwt>
<pdfrwt beam="1">  1        4 0.21690077E-02 0.20000467E+02</pdfrwt>
<pdfrwt beam="2">  1       -4 0.10912706E-02 0.20000467E+02</pdfrwt>
<totfact> 0.12942831E+06</totfact>
</mgrwt>
</event>
<event>
 4    1  0.1154861E-006  0.2008454E+02  0.7818608E-02  0.1743652E+00
         -4   -1    0    0    0  501 -0.00000000000E+00  0.00000000000E+00  0.18430152252E+02  0.18484775141E+02  0.14200000000E+01 0. -1.
          4   -1    0    0  501    0  0.00000000000E+00 -0.00000000000E+00 -0.53158052857E+01  0.55021982730E+01  0.14200000000E+01 0.  1.
        -11    1    1    2    0    0 -0.54754039898E+01 -0.84077209070E+01  0.70601700975E+01  0.12268488977E+02  0.51100000000E-03 0. -1.
         11    1    1    2    0    0  0.54754039898E+01  0.84077209070E+01  0.60541768686E+01  0.11718484438E+02  0.51100000000E-03 0.  1.
<mgrwt>
<rscale>  0 0.20084541E+02</rscale>
<asrwt>0</asrwt>
<pdfrwt beam="2">  1        4 0.83635588E-03 0.20084541E+02</pdfrwt>
<pdfrwt beam="1">  1       -4 0.28539477E-02 0.20084541E+02</pdfrwt>
<totfact> 0.12673047E+06</totfact>
</mgrwt>
</event>
<event>
 5    1  0.1154861E-006  0.2000082E+02  0.7818608E-02  0.1745312E+00
          4   -1    0    0  501    0  0.00000000000E+00  0.00000000000E+00  0.79389233347E+00  0.16268574114E+01  0.14200000000E+01 0. -1.
         -4   -1    0    0    0  501 -0.00000000000E+00 -0.00000000000E+00 -0.81784593840E+02  0.81796920416E+02  0.14200000000E+01 0.  1.
       1023    2    1    2    0    0  0.00000000000E+00  0.00000000000E+00 -0.80990701506E+02  0.83423777827E+02  0.20000824396E+02 0.  0.
        -11    1    3    3    0    0  0.90595332344E+01  0.42347251823E+01 -0.40435766030E+02  0.41654041995E+02  0.51100000000E-03 0. -1.
         11    1    3    3    0    0 -0.90595332344E+01 -0.42347251823E+01 -0.40554935476E+02  0.41769735832E+02  0.51100000000E-03 0.  1.
<mgrwt>
<rscale>  0 0.20000824E+02</rscale>
<asrwt>0</asrwt>
<pdfrwt beam="1">  1        4 0.18715978E-03 0.20000824E+02</pdfrwt>
<pdfrwt beam="2">  1       -4 0.12647263E-01 0.20000824E+02</pdfrwt>
<totfact> 0.10299805E+06</totfact>
</mgrwt>
</event>
<event>
 5    1  0.1154861E-006  0.2000039E+02  0.7818608E-02  0.1745320E+00
         -4   -1    0    0    0  501 -0.00000000000E+00  0.00000000000E+00  0.92140956229E+01  0.93228728484E+01  0.14200000000E+01 0. -1.
          4   -1    0    0  501    0  0.00000000000E+00 -0.00000000000E+00 -0.10633420317E+02  0.10727815604E+02  0.14200000000E+01 0.  1.
       1023    2    1    2    0    0  0.00000000000E+00  0.00000000000E+00 -0.14193246938E+01  0.20050688452E+02  0.20000390617E+02 0.  0.
        -11    1    3    3    0    0  0.89293056710E+01 -0.45023503152E+01 -0.72544413949E+00  0.10026461369E+02  0.51100000000E-03 0.  1.
         11    1    3    3    0    0 -0.89293056710E+01  0.45023503152E+01 -0.69388055427E+00  0.10024227083E+02  0.51100000000E-03 0. -1.
<mgrwt>
<rscale>  0 0.20000391E+02</rscale>
<asrwt>0</asrwt>
<pdfrwt beam="2">  1        4 0.16515395E-02 0.20000391E+02</pdfrwt>
<pdfrwt beam="1">  1       -4 0.14331818E-02 0.20000391E+02</pdfrwt>
<totfact> 0.13010518E+06</totfact>
</mgrwt>
</event>
<event>
 5    1  0.1154861E-006  0.2000040E+02  0.7818608E-02  0.1745320E+00
         -4   -1    0    0    0  501 -0.00000000000E+00  0.00000000000E+00  0.46856929124E+02  0.46878440748E+02  0.14200000000E+01 0. -1.
          4   -1    0    0  501    0  0.00000000000E+00 -0.00000000000E+00 -0.18735215958E+01  0.23508473302E+01  0.14200000000E+01 0.  1.
       1023    2    1    2    0    0  0.00000000000E+00  0.00000000000E+00  0.44983407528E+02  0.49229288078E+02  0.20000396291E+02 0.  0.
        -11    1    3    3    0    0 -0.98553179112E+01  0.16958097538E+01  0.22417826857E+02  0.24547138797E+02  0.51100000000E-03 0.  1.
         11    1    3    3    0    0  0.98553179112E+01 -0.16958097538E+01  0.22565580671E+02  0.24682149281E+02  0.51100000000E-03 0. -1.
<mgrwt>
<rscale>  0 0.20000396E+02</rscale>
<asrwt>0</asrwt>
<pdfrwt beam="2">  1        4 0.32660622E-03 0.20000396E+02</pdfrwt>
<pdfrwt beam="1">  1       -4 0.72471299E-02 0.20000396E+02</pdfrwt>
<totfact> 0.11552290E+06</totfact>
</mgrwt>
</event>
<event>
 5    1  0.1154861E-006  0.2000073E+02  0.7818608E-02  0.1745314E+00
          4   -1    0    0  501    0  0.00000000000E+00  0.00000000000E+00  0.79552876148E+02  0.79565548470E+02  0.14200000000E+01 0. -1.
         -4   -1    0    0    0  501 -0.00000000000E+00 -0.00000000000E+00 -0.83918928803E+00  0.16494358615E+01  0.14200000000E+01 0.  1.
       1023    2    1    2    0    0  0.00000000000E+00  0.00000000000E+00  0.78713686860E+02  0.81214984332E+02  0.20000729511E+02 0.  0.
        -11    1    3    3    0    0  0.86444576901E+01  0.50279848243E+01  0.39341206539E+02  0.40592336867E+02  0.51100000000E-03 0.  1.
         11    1    3    3    0    0 -0.86444576901E+01 -0.50279848243E+01  0.39372480321E+02  0.40622647465E+02  0.51100000000E-03 0. -1.
<mgrwt>
<rscale>  0 0.20000730E+02</rscale>
<asrwt>0</asrwt>
<pdfrwt beam="1">  1        4 0.12302206E-01 0.20000730E+02</pdfrwt>
<pdfrwt beam="2">  1       -4 0.19240749E-03 0.20000730E+02</pdfrwt>
<totfact> 0.10370869E+06</totfact>
</mgrwt>
</event>
<event>
 5    1  0.1161695E-006  0.2000238E+02  0.7818608E-02  0.1745281E+00
         -4   -1    0    0    0  501 -0.00000000000E+00  0.00000000000E+00  0.74107718566E+01  0.75455907331E+01  0.14200000000E+01 0. -1.
          4   -1    0    0  501    0  0.00000000000E+00 -0.00000000000E+00 -0.13202176106E+02  0.13278322708E+02  0.14200000000E+01 0.  1.
       1023    2    1    2    0    0  0.00000000000E+00  0.00000000000E+00 -0.57914042494E+01  0.20823913441E+02  0.20002375054E+02 0.  0.
        -11    1    3    3    0    0  0.50016828300E+01  0.86602118844E+01 -0.29867627769E+01  0.10437281886E+02  0.51100000000E-03 0.  1.
         11    1    3    3    0    0 -0.50016828300E+01 -0.86602118844E+01 -0.28046414724E+01  0.10386631555E+02  0.51100000000E-03 0. -1.
<mgrwt>
<rscale>  0 0.20002375E+02</rscale>
<asrwt>0</asrwt>
<pdfrwt beam="2">  1        4 0.20473321E-02 0.20002375E+02</pdfrwt>
<pdfrwt beam="1">  1       -4 0.11563469E-02 0.20002375E+02</pdfrwt>
<totfact> 0.12962019E+06</totfact>
</mgrwt>
</event>
<event>
 5    1  0.1167829E-006  0.2000172E+02  0.7818608E-02  0.1745294E+00
         -4   -1    0    0    0  501 -0.00000000000E+00  0.00000000000E+00  0.23303641976E+02  0.23346865515E+02  0.14200000000E+01 0. -1.
          4   -1    0    0  501    0  0.00000000000E+00 -0.00000000000E+00 -0.41258387630E+01  0.43633640116E+01  0.14200000000E+01 0.  1.
       1023    2    1    2    0    0  0.00000000000E+00  0.00000000000E+00  0.19177803214E+02  0.27710229526E+02  0.20001717034E+02 0.  0.
        -11    1    3    3    0    0 -0.48486814594E+01 -0.87466985800E+01  0.96611929793E+01  0.13905146457E+02  0.51100000000E-03 0. -1.
         11    1    3    3    0    0  0.48486814594E+01  0.87466985800E+01  0.95166102342E+01  0.13805083070E+02  0.51100000000E-03 0.  1.
<mgrwt>
<rscale>  0 0.20001717E+02</rscale>
<asrwt>0</asrwt>
<pdfrwt beam="2">  1        4 0.65634048E-03 0.20001717E+02</pdfrwt>
<pdfrwt beam="1">  1       -4 0.36067718E-02 0.20001717E+02</pdfrwt>
<totfact> 0.12574914E+06</totfact>
</mgrwt>
</event>
<event>
 5    1  0.1183135E-006  0.2000117E+02  0.7818608E-02  0.1745305E+00
         -4   -1    0    0    0  501 -0.00000000000E+00  0.00000000000E+00  0.22926624624E+01  0.26967946096E+01  0.14200000000E+01 0.  1.
          4   -1    0    0  501    0  0.00000000000E+00 -0.00000000000E+00 -0.39671356381E+02  0.39696762049E+02  0.14200000000E+01 0. -1.
       1023    2    1    2    0    0  0.00000000000E+00  0.00000000000E+00 -0.37378693919E+02  0.42393556658E+02  0.20001172142E+02 0.  0.
        -11    1    3    3    0    0 -0.14061898401E+00 -0.99995829205E+01 -0.18653301030E+02  0.21164996382E+02  0.51100000000E-03 0.  1.
         11    1    3    3    0    0  0.14061898401E+00  0.99995829205E+01 -0.18725392889E+02  0.21228560276E+02  0.51100000000E-03 0. -1.
<mgrwt>
<rscale>  0 0.20001172E+02</rscale>
<asrwt>0</asrwt>
<pdfrwt beam="2">  1        4 0.61363265E-02 0.20001172E+02</pdfrwt>
<pdfrwt beam="1">  1       -4 0.38575870E-03 0.20001172E+02</pdfrwt>
<totfact> 0.11851230E+06</totfact>
</mgrwt>
</event>
<event>
 4    1  0.1154861E-006  0.2002725E+02  0.7818608E-02  0.1744787E+00
          4   -1    0    0  501    0  0.00000000000E+00  0.00000000000E+00  0.10280650521E+02  0.10378254918E+02  0.14200000000E+01 0.  1.
         -4   -1    0    0    0  501 -0.00000000000E+00 -0.00000000000E+00 -0.95571444161E+01  0.96620603078E+01  0.14200000000E+01 0. -1.
        -11    1    1    2    0    0 -0.97628318885E+01 -0.22266274506E+01  0.31771564109E+00  0.10018567751E+02  0.51100000000E-03 0. -1.
         11    1    1    2    0    0  0.97628318885E+01  0.22266274506E+01  0.40579046394E+00  0.10021747475E+02  0.51100000000E-03 0.  1.
<mgrwt>
<rscale>  0 0.20027251E+02</rscale>
<asrwt>0</asrwt>
<pdfrwt beam="1">  1        4 0.15972170E-02 0.20027251E+02</pdfrwt>
<pdfrwt beam="2">  1       -4 0.14859084E-02 0.20027251E+02</pdfrwt>
<totfact> 0.12975518E+06</totfact>
</mgrwt>
</event>
<event>
 5    1  0.1154861E-006  0.2000079E+02  0.7818608E-02  0.1745312E+00
         -4   -1    0    0    0  501 -0.00000000000E+00  0.00000000000E+00  0.73753643832E+02  0.73767312399E+02  0.14200000000E+01 0.  1.
          4   -1    0    0  501    0  0.00000000000E+00 -0.00000000000E+00 -0.96655047594E+00  0.17177368316E+01  0.14200000000E+01 0. -1.
       1023    2    1    2    0    0  0.00000000000E+00  0.00000000000E+00  0.72787093356E+02  0.75485049230E+02  0.20000792435E+02 0.  0.
        -11    1    3    3    0    0 -0.82561889452E+01  0.56429060298E+01  0.36281595728E+02  0.37634574970E+02  0.51100000000E-03 0.  1.
         11    1    3    3    0    0  0.82561889452E+01 -0.56429060298E+01  0.36505497628E+02  0.37850474260E+02  0.51100000000E-03 0. -1.
<mgrwt>
<rscale>  0 0.20000792E+02</rscale>
<asrwt>0</asrwt>
<pdfrwt beam="2">  1        4 0.20753510E-03 0.20000792E+02</pdfrwt>
<pdfrwt beam="1">  1       -4 0.11405547E-01 0.20000792E+02</pdfrwt>
<totfact> 0.10560438E+06</totfact>
</mgrwt>
</event>
<event>
 5    1  0.1194392E-006  0.2000092E+02  0.7818608E-02  0.1745310E+00
         -4   -1    0    0    0  501 -0.00000000000E+00  0.00000000000E+00  0.64711530906E+01  0.66251205516E+01  0.14200000000E+01 0.  1.
          4   -1    0    0  501    0  0.00000000000E+00 -0.00000000000E+00 -0.15085220689E+02  0.15151906918E+02  0.14200000000E+01 0. -1.
       1023    2    1    2    0    0  0.00000000000E+00  0.00000000000E+00 -0.86140675984E+01  0.21777027469E+02  0.20000919099E+02 0.  0.
        -11    1    3    3    0    0 -0.42958673152E+01 -0.90306404608E+01 -0.43586551138E+01  0.10908932935E+02  0.51100000000E-03 0. -1.
         11    1    3    3    0    0  0.42958673152E+01  0.90306404608E+01 -0.42554124846E+01  0.10868094534E+02  0.51100000000E-03 0.  1.
<mgrwt>
<rscale>  0 0.20000919E+02</rscale>
<asrwt>0</asrwt>
<pdfrwt beam="2">  1        4 0.23377765E-02 0.20000919E+02</pdfrwt>
<pdfrwt beam="1">  1       -4 0.10125354E-02 0.20000919E+02</pdfrwt>
<totfact> 0.12907980E+06</totfact>
</mgrwt>
</event>
<event>
 5    1  0.1204922E-006  0.2000117E+02  0.7818608E-02  0.1745305E+00
         -4   -1    0    0    0  501 -0.00000000000E+00  0.00000000000E+00  0.42250299103E+02  0.42274154921E+02  0.14200000000E+01 0. -1.
          4   -1    0    0  501    0  0.00000000000E+00 -0.00000000000E+00 -0.21273453860E+01  0.25577330571E+01  0.14200000000E+01 0.  1.
       1023    2    1    2    0    0  0.00000000000E+00  0.00000000000E+00  0.40122953717E+02  0.44831887978E+02  0.20001169083E+02 0.  0.
        -11    1    3    3    0    0  0.88004904888E+01 -0.47498905456E+01  0.20151075869E+02  0.22496131934E+02  0.51100000000E-03 0. -1.
         11    1    3    3    0    0 -0.88004904888E+01  0.47498905456E+01  0.19971877848E+02  0.22335756044E+02  0.51100000000E-03 0.  1.
<mgrwt>
<rscale>  0 0.20001169E+02</rscale>
<asrwt>0</asrwt>
<pdfrwt beam="2">  1        4 0.36222573E-03 0.20001169E+02</pdfrwt>
<pdfrwt beam="1">  1       -4 0.65349875E-02 0.20001169E+02</pdfrwt>
<totfact> 0.11741861E+06</totfact>
</mgrwt>
</event>
<event>
 5    1  0.1154861E-006  0.2000066E+02  0.7818608E-02  0.1745315E+00
          4   -1    0    0  501    0  0.00000000000E+00  0.00000000000E+00  0.11108417664E+03  0.11109325227E+03  0.14200000000E+01 0.  1.
         -4   -1    0    0    0  501 -0.00000000000E+00 -0.00000000000E+00 -0.32546349783E+00  0.14568206782E+01  0.14200000000E+01 0. -1.
       1023    2    1    2    0    0  0.00000000000E+00  0.00000000000E+00  0.11075871314E+03  0.11255007295E+03  0.20000659579E+02 0.  0.
        -11    1    3    3    0    0 -0.12747353150E+01 -0.99186925242E+01  0.55185714240E+02  0.56084476176E+02  0.51100000000E-03 0. -1.
         11    1    3    3    0    0  0.12747353150E+01  0.99186925242E+01  0.55572998903E+02  0.56465596772E+02  0.51100000000E-03 0.  1.
<mgrwt>
<rscale>  0 0.20000660E+02</rscale>
<asrwt>0</asrwt>
<pdfrwt beam="1">  1        4 0.17177608E-01 0.20000660E+02</pdfrwt>
<pdfrwt beam="2">  1       -4 0.13779684E-03 0.20000660E+02</pdfrwt>
<totfact> 0.94570056E+05</totfact>
</mgrwt>
</event>
<event>
 5    1  0.1154861E-006  0.2000054E+02  0.7818608E-02  0.1745317E+00
         -4   -1    0    0    0  501 -0.00000000000E+00  0.00000000000E+00  0.10611109902E+01  0.17726693243E+01  0.14200000000E+01 0. -1.
          4   -1    0    0  501    0  0.00000000000E+00 -0.00000000000E+00 -0.69860338341E+02  0.69874768501E+02  0.14200000000E+01 0.  1.
       1023    2    1    2    0    0  0.00000000000E+00  0.00000000000E+00 -0.68799227351E+02  0.71647437825E+02  0.20000541566E+02 0.  0.
        -11    1    3    3    0    0 -0.11380291200E+01  0.99352423266E+01 -0.34527028990E+02  0.35946069069E+02  0.51100000000E-03 0.  1.
         11    1    3    3    0    0  0.11380291200E+01 -0.99352423266E+01 -0.34272198360E+02  0.35701368756E+02  0.51100000000E-03 0. -1.
<mgrwt>
<rscale>  0 0.20000542E+02</rscale>
<asrwt>0</asrwt>
<pdfrwt beam="2">  1        4 0.10803587E-01 0.20000542E+02</pdfrwt>
<pdfrwt beam="1">  1       -4 0.21909317E-03 0.20000542E+02</pdfrwt>
<totfact> 0.10692442E+06</totfact>
</mgrwt>
</event>
<event>
 5    1  0.1154861E-006  0.2000072E+02  0.7818608E-02  0.1745314E+00
         -4   -1    0    0    0  501 -0.00000000000E+00  0.00000000000E+00  0.11422500784E+03  0.11423383394E+03  0.14200000000E+01 0.  1.
          4   -1    0    0  501    0  0.00000000000E+00 -0.00000000000E+00 -0.28497798999E+00  0.14483136590E+01  0.14200000000E+01 0. -1.
       1023    2    1    2    0    0  0.00000000000E+00  0.00000000000E+00  0.11394002985E+03  0.11568214760E+03  0.20000721745E+02 0.  0.
        -11    1    3    3    0    0 -0.80408036127E+01 -0.59454794669E+01  0.56605652833E+02  0.57482198825E+02  0.51100000000E-03 0.  1.
         11    1    3    3    0    0  0.80408036127E+01  0.59454794669E+01  0.57334377020E+02  0.58199948775E+02  0.51100000000E-03 0. -1.
<mgrwt>
<rscale>  0 0.20000722E+02</rscale>
<asrwt>0</asrwt>
<pdfrwt beam="2">  1        4 0.13400902E-03 0.20000722E+02</pdfrwt>
<pdfrwt beam="1">  1       -4 0.17663250E-01 0.20000722E+02</pdfrwt>
<totfact> 0.93752657E+05</totfact>
</mgrwt>
</event>
<event>
 5    1  0.1154861E-006  0.2000029E+02  0.7818608E-02  0.1745322E+00
         -4   -1    0    0    0  501 -0.00000000000E+00  0.00000000000E+00  0.20886180656E+02  0.20934396155E+02  0.14200000000E+01 0. -1.
          4   -1    0    0  501    0  0.00000000000E+00 -0.00000000000E+00 -0.46276527399E+01  0.48406166840E+01  0.14200000000E+01 0.  1.
       1023    2    1    2    0    0  0.00000000000E+00  0.00000000000E+00  0.16258527916E+02  0.25775012839E+02  0.20000288920E+02 0.  0.
        -11    1    3    3    0    0 -0.18136926377E+01 -0.98342789670E+01  0.81538909854E+01  0.12903040814E+02  0.51100000000E-03 0.  1.
         11    1    3    3    0    0  0.18136926377E+01  0.98342789670E+01  0.81046369307E+01  0.12871972025E+02  0.51100000000E-03 0. -1.
<mgrwt>
<rscale>  0 0.20000289E+02</rscale>
<asrwt>0</asrwt>
<pdfrwt beam="2">  1        4 0.73203730E-03 0.20000289E+02</pdfrwt>
<pdfrwt beam="1">  1       -4 0.32333493E-02 0.20000289E+02</pdfrwt>
<totfact> 0.12682199E+06</totfact>
</mgrwt>
</event>
<event>
 5    1  0.1154861E-006  0.2000033E+02  0.7818608E-02  0.1745322E+00
          4   -1    0    0  501    0  0.00000000000E+00  0.00000000000E+00  0.97881512943E+00  0.17246678108E+01  0.14200000000E+01 0. -1.
         -4   -1    0    0    0  501 -0.00000000000E+00 -0.00000000000E+00 -0.73226456092E+02  0.73240223045E+02  0.14200000000E+01 0.  1.
       1023    2    1    2    0    0  0.00000000000E+00  0.00000000000E+00 -0.72247640962E+02  0.74964890856E+02  0.20000330909E+02 0.  0.
        -11    1    3    3    0    0  0.86895500880E+01 -0.49491873877E+01 -0.36034151376E+02  0.37396026556E+02  0.51100000000E-03 0. -1.
         11    1    3    3    0    0 -0.86895500880E+01  0.49491873877E+01 -0.36213489586E+02  0.37568864300E+02  0.51100000000E-03 0.  1.
<mgrwt>
<rscale>  0 0.20000331E+02</rscale>
<asrwt>0</asrwt>
<pdfrwt beam="1">  1        4 0.20901928E-03 0.20000331E+02</pdfrwt>
<pdfrwt beam="2">  1       -4 0.11324038E-01 0.20000331E+02</pdfrwt>
<totfact> 0.10578555E+06</totfact>
</mgrwt>
</event>
<event>
 5    1  0.1154861E-006  0.2000047E+02  0.7818608E-02  0.1745319E+00
         -4   -1    0    0    0  501 -0.00000000000E+00  0.00000000000E+00  0.15872986266E+02  0.15936376408E+02  0.14200000000E+01 0.  1.
          4   -1    0    0  501    0  0.00000000000E+00 -0.00000000000E+00 -0.61432127328E+01  0.63051933103E+01  0.14200000000E+01 0. -1.
       1023    2    1    2    0    0  0.00000000000E+00  0.00000000000E+00  0.97297735333E+01  0.22241569718E+02  0.20000473257E+02 0.  0.
        -11    1    3    3    0    0 -0.50180728607E+01  0.86500617911E+01  0.48764510895E+01  0.11125843775E+02  0.51100000000E-03 0. -1.
         11    1    3    3    0    0  0.50180728607E+01 -0.86500617911E+01  0.48533224438E+01  0.11115725943E+02  0.51100000000E-03 0.  1.
<mgrwt>
<rscale>  0 0.20000473E+02</rscale>
<asrwt>0</asrwt>
<pdfrwt beam="2">  1        4 0.96244588E-03 0.20000473E+02</pdfrwt>
<pdfrwt beam="1">  1       -4 0.24593340E-02 0.20000473E+02</pdfrwt>
<totfact> 0.12881605E+06</totfact>
</mgrwt>
</event>
<event>
 5    1  0.1154861E-006  0.2000013E+02  0.7818608E-02  0.1745325E+00
          4   -1    0    0  501    0  0.00000000000E+00  0.00000000000E+00  0.42697211272E+01  0.44996575985E+01  0.14200000000E+01 0.  1.
         -4   -1    0    0    0  501 -0.00000000000E+00 -0.00000000000E+00 -0.22554088941E+02  0.22598746159E+02  0.14200000000E+01 0. -1.
       1023    2    1    2    0    0  0.00000000000E+00  0.00000000000E+00 -0.18284367814E+02  0.27098403758E+02  0.20000134496E+02 0.  0.
        -11    1    3    3    0    0  0.98338332951E+01  0.18157695037E+01 -0.91327444107E+01  0.13542832676E+02  0.51100000000E-03 0.  1.
         11    1    3    3    0    0 -0.98338332951E+01 -0.18157695037E+01 -0.91516234033E+01  0.13555571081E+02  0.51100000000E-03 0. -1.
<mgrwt>
<rscale>  0 0.20000134E+02</rscale>
<asrwt>0</asrwt>
<pdfrwt beam="1">  1        4 0.67800277E-03 0.20000134E+02</pdfrwt>
<pdfrwt beam="2">  1       -4 0.34909824E-02 0.20000134E+02</pdfrwt>
<totfact> 0.12609983E+06</totfact>
</mgrwt>
</event>
<event>
 5    1  0.1154861E-006  0.2000031E+02  0.7818608E-02  0.1745322E+00
          4   -1    0    0  501    0  0.00000000000E+00  0.00000000000E+00  0.11554385656E+03  0.11555258192E+03  0.14200000000E+01 0.  1.
         -4   -1    0    0    0  501 -0.00000000000E+00 -0.00000000000E+00 -0.26831048520E+00  0.14451264708E+01  0.14200000000E+01 0. -1.
       1023    2    1    2    0    0  0.00000000000E+00  0.00000000000E+00  0.11527554607E+03  0.11699770839E+03  0.20000306153E+02 0.  0.
        -11    1    3    3    0    0 -0.67586834045E+01 -0.73704197497E+01  0.57714635792E+02  0.58574585560E+02  0.51100000000E-03 0.  1.
         11    1    3    3    0    0  0.67586834045E+01  0.73704197497E+01  0.57560910279E+02  0.58423122829E+02  0.51100000000E-03 0. -1.
<mgrwt>
<rscale>  0 0.20000306E+02</rscale>
<asrwt>0</asrwt>
<pdfrwt beam="1">  1        4 0.17867172E-01 0.20000306E+02</pdfrwt>
<pdfrwt beam="2">  1       -4 0.13247404E-03 0.20000306E+02</pdfrwt>
<totfact> 0.93418014E+05</totfact>
</mgrwt>
</event>
<event>
 5    1  0.1154861E-006  0.2000698E+02  0.7818608E-02  0.1745189E+00
         -4   -1    0    0    0  501 -0.00000000000E+00  0.00000000000E+00  0.85859662359E+00  0.16593939141E+01  0.14200000000E+01 0.  1.
          4   -1    0    0  501    0  0.00000000000E+00 -0.00000000000E+00 -0.78674634648E+02  0.78687448408E+02  0.14200000000E+01 0. -1.
       1023    2    1    2    0    0  0.00000000000E+00  0.00000000000E+00 -0.77816038024E+02  0.80346842322E+02  0.20006981215E+02 0.  0.
        -11    1    3    3    0    0 -0.37464797162E+01 -0.92734966110E+01 -0.39669719323E+02  0.40911129062E+02  0.51100000000E-03 0.  1.
         11    1    3    3    0    0  0.37464797162E+01  0.92734966110E+01 -0.38146318701E+02  0.39435713260E+02  0.51100000000E-03 0. -1.
<mgrwt>
<rscale>  0 0.20006981E+02</rscale>
<asrwt>0</asrwt>
<pdfrwt beam="2">  1        4 0.12166372E-01 0.20006981E+02</pdfrwt>
<pdfrwt beam="1">  1       -4 0.19467732E-03 0.20006981E+02</pdfrwt>
<totfact> 0.10392574E+06</totfact>
</mgrwt>
</event>
<event>
 5    1  0.1230117E-006  0.2000180E+02  0.7818608E-02  0.1745292E+00
         -4   -1    0    0    0  501 -0.00000000000E+00  0.00000000000E+00  0.11529715998E+02  0.11616830506E+02  0.14200000000E+01 0.  1.
          4   -1    0    0  501    0  0.00000000000E+00 -0.00000000000E+00 -0.84958921994E+01  0.86137439167E+01  0.14200000000E+01 0. -1.
       1023    2    1    2    0    0  0.00000000000E+00  0.00000000000E+00  0.30338237991E+01  0.20230574423E+02  0.20001801285E+02 0.  0.
        -11    1    3    3    0    0  0.92695718100E+01 -0.37517179872E+01  0.16513380105E+01  0.10135446062E+02  0.51100000000E-03 0. -1.
         11    1    3    3    0    0 -0.92695718100E+01  0.37517179872E+01  0.13824857886E+01  0.10095128360E+02  0.51100000000E-03 0.  1.
<mgrwt>
<rscale>  0 0.20001801E+02</rscale>
<asrwt>0</asrwt>
<pdfrwt beam="2">  1        4 0.13228270E-02 0.20001801E+02</pdfrwt>
<pdfrwt beam="1">  1       -4 0.17895691E-02 0.20001801E+02</pdfrwt>
<totfact> 0.12997931E+06</totfact>
</mgrwt>
</event>
<event>
 4    1  0.1154861E-006  0.2001301E+02  0.7818608E-02  0.1745070E+00
         -4   -1    0    0    0  501 -0.00000000000E+00  0.00000000000E+00  0.11498440102E+03  0.11499316883E+03  0.14200000000E+01 0.  1.
          4   -1    0    0  501    0  0.00000000000E+00 -0.00000000000E+00 -0.27718287361E+00  0.14468000364E+01  0.14200000000E+01 0. -1.
        -11    1    1    2    0    0  0.35732375128E+01 -0.93442062344E+01  0.56080269998E+02  0.56965594000E+02  0.51100000000E-03 0.  1.
         11    1    1    2    0    0 -0.35732375128E+01  0.93442062344E+01  0.58626948149E+02  0.59474374868E+02  0.51100000000E-03 0. -1.
<mgrwt>
<rscale>  0 0.20013007E+02</rscale>
<asrwt>0</asrwt>
<pdfrwt beam="2">  1        4 0.13328855E-03 0.20013007E+02</pdfrwt>
<pdfrwt beam="1">  1       -4 0.17780548E-01 0.20013007E+02</pdfrwt>
<totfact> 0.93443093E+05</totfact>
</mgrwt>
</event>
<event>
 5    1  0.1154861E-006  0.2000019E+02  0.7818608E-02  0.1745324E+00
          4   -1    0    0  501    0  0.00000000000E+00  0.00000000000E+00  0.17557519009E+02  0.17614848105E+02  0.14200000000E+01 0.  1.
         -4   -1    0    0    0  501 -0.00000000000E+00 -0.00000000000E+00 -0.55393589595E+01  0.57184698725E+01  0.14200000000E+01 0. -1.
       1023    2    1    2    0    0  0.00000000000E+00  0.00000000000E+00  0.12018160050E+02  0.23333317977E+02  0.20000188920E+02 0.  0.
        -11    1    3    3    0    0  0.88470007228E+01 -0.46616500991E+01  0.60540457072E+01  0.11689819208E+02  0.51100000000E-03 0.  1.
         11    1    3    3    0    0 -0.88470007228E+01  0.46616500991E+01  0.59641143423E+01  0.11643498769E+02  0.51100000000E-03 0. -1.
<mgrwt>
<rscale>  0 0.20000189E+02</rscale>
<asrwt>0</asrwt>
<pdfrwt beam="1">  1        4 0.27193444E-02 0.20000189E+02</pdfrwt>
<pdfrwt beam="2">  1       -4 0.87039680E-03 0.20000189E+02</pdfrwt>
<totfact> 0.12819300E+06</totfact>
</mgrwt>
</event>
<event>
 5    1  0.1222565E-006  0.2000127E+02  0.7818608E-02  0.1745303E+00
         -4   -1    0    0    0  501 -0.00000000000E+00  0.00000000000E+00  0.32101130999E+01  0.35101604115E+01  0.14200000000E+01 0.  1.
          4   -1    0    0  501    0  0.00000000000E+00 -0.00000000000E+00 -0.29446557903E+02  0.29480776318E+02  0.14200000000E+01 0. -1.
       1023    2    1    2    0    0  0.00000000000E+00  0.00000000000E+00 -0.26236444803E+02  0.32990936730E+02  0.20001271720E+02 0.  0.
        -11    1    3    3    0    0 -0.45706941959E+00 -0.99896570976E+01 -0.13287689691E+02  0.16630239294E+02  0.51100000000E-03 0. -1.
         11    1    3    3    0    0  0.45706941959E+00  0.99896570976E+01 -0.12948755112E+02  0.16360697436E+02  0.51100000000E-03 0.  1.
<mgrwt>
<rscale>  0 0.20001272E+02</rscale>
<asrwt>0</asrwt>
<pdfrwt beam="2">  1        4 0.45559523E-02 0.20001272E+02</pdfrwt>
<pdfrwt beam="1">  1       -4 0.51957632E-03 0.20001272E+02</pdfrwt>
<totfact> 0.12300571E+06</totfact>
</mgrwt>
</event>
<event>
 5    1  0.1176105E-006  0.2000115E+02  0.7818608E-02  0.1745305E+00
         -4   -1    0    0    0  501 -0.00000000000E+00  0.00000000000E+00  0.56218602996E+02  0.56236533702E+02  0.14200000000E+01 0. -1.
          4   -1    0    0  501    0  0.00000000000E+00 -0.00000000000E+00 -0.14744100535E+01  0.20470185651E+01  0.14200000000E+01 0.  1.
       1023    2    1    2    0    0  0.00000000000E+00  0.00000000000E+00  0.54744192943E+02  0.58283552267E+02  0.20001145066E+02 0.  0.
        -11    1    3    3    0    0  0.98640330699E+01  0.16441621719E+01  0.27095141606E+02  0.28881639783E+02  0.51100000000E-03 0. -1.
         11    1    3    3    0    0 -0.98640330699E+01 -0.16441621719E+01  0.27649051337E+02  0.29401912484E+02  0.51100000000E-03 0.  1.
<mgrwt>
<rscale>  0 0.20001145E+02</rscale>
<asrwt>0</asrwt>
<pdfrwt beam="2">  1        4 0.27225841E-03 0.20001145E+02</pdfrwt>
<pdfrwt beam="1">  1       -4 0.86944418E-02 0.20001145E+02</pdfrwt>
<totfact> 0.11183896E+06</totfact>
</mgrwt>
</event>
<event>
 5    1  0.1154861E-006  0.2000005E+02  0.7818608E-02  0.1745327E+00
         -4   -1    0    0    0  501 -0.00000000000E+00  0.00000000000E+00  0.78837148150E+02  0.78849935500E+02  0.14200000000E+01 0.  1.
          4   -1    0    0  501    0  0.00000000000E+00 -0.00000000000E+00 -0.85401452307E+00  0.16570277021E+01  0.14200000000E+01 0. -1.
       1023    2    1    2    0    0  0.00000000000E+00  0.00000000000E+00  0.77983133627E+02  0.80506963202E+02  0.20000049846E+02 0.  0.
        -11    1    3    3    0    0 -0.77263680204E+01  0.63485155297E+01  0.39028891507E+02  0.40289636195E+02  0.51100000000E-03 0.  1.
         11    1    3    3    0    0  0.77263680204E+01 -0.63485155297E+01  0.38954242120E+02  0.40217327007E+02  0.51100000000E-03 0. -1.
<mgrwt>
<rscale>  0 0.20000050E+02</rscale>
<asrwt>0</asrwt>
<pdfrwt beam="2">  1        4 0.19414071E-03 0.20000050E+02</pdfrwt>
<pdfrwt beam="1">  1       -4 0.12191547E-01 0.20000050E+02</pdfrwt>
<totfact> 0.10394569E+06</totfact>
</mgrwt>
</event>
<event>
 5    1  0.1154861E-006  0.2000493E+02  0.7818608E-02  0.1745230E+00
          4   -1    0    0  501    0  0.00000000000E+00  0.00000000000E+00  0.15148580661E+02  0.15214989189E+02  0.14200000000E+01 0.  1.
         -4   -1    0    0    0  501 -0.00000000000E+00 -0.00000000000E+00 -0.64462334584E+01  0.66007822113E+01  0.14200000000E+01 0. -1.
       1023    2    1    2    0    0  0.00000000000E+00  0.00000000000E+00  0.87023472023E+01  0.21815771401E+02  0.20004925268E+02 0.  0.
        -11    1    3    3    0    0 -0.39441768531E+01  0.91916801463E+01  0.44338197867E+01  0.10940853400E+02  0.51100000000E-03 0.  1.
         11    1    3    3    0    0  0.39441768531E+01 -0.91916801463E+01  0.42685274156E+01  0.10874918001E+02  0.51100000000E-03 0. -1.
<mgrwt>
<rscale>  0 0.20004925E+02</rscale>
<asrwt>0</asrwt>
<pdfrwt beam="1">  1        4 0.23475476E-02 0.20004925E+02</pdfrwt>
<pdfrwt beam="2">  1       -4 0.10087249E-02 0.20004925E+02</pdfrwt>
<totfact> 0.12900453E+06</totfact>
</mgrwt>
</event>
<event>
 5    1  0.1154861E-006  0.2000452E+02  0.7818608E-02  0.1745238E+00
          4   -1    0    0  501    0  0.00000000000E+00  0.00000000000E+00  0.24151070380E+01  0.28016320253E+01  0.14200000000E+01 0. -1.
         -4   -1    0    0    0  501 -0.00000000000E+00 -0.00000000000E+00 -0.37954679791E+02  0.37981233762E+02  0.14200000000E+01 0.  1.
       1023    2    1    2    0    0  0.00000000000E+00  0.00000000000E+00 -0.35539572753E+02  0.40782865787E+02  0.20004522247E+02 0.  0.
        -11    1    3    3    0    0  0.59874692013E+01  0.80111503993E+01 -0.17504685865E+02  0.20160415314E+02  0.51100000000E-03 0.  1.
         11    1    3    3    0    0 -0.59874692013E+01 -0.80111503993E+01 -0.18034886889E+02  0.20622450473E+02  0.51100000000E-03 0. -1.
<mgrwt>
<rscale>  0 0.20004522E+02</rscale>
<asrwt>0</asrwt>
<pdfrwt beam="1">  1        4 0.40333026E-03 0.20004522E+02</pdfrwt>
<pdfrwt beam="2">  1       -4 0.58709564E-02 0.20004522E+02</pdfrwt>
<totfact> 0.11920872E+06</totfact>
</mgrwt>
</event>
<event>
 5    1  0.1154861E-006  0.2000028E+02  0.7818608E-02  0.1745323E+00
          4   -1    0    0  501    0  0.00000000000E+00  0.00000000000E+00  0.60009946444E+01  0.61667119863E+01  0.14200000000E+01 0. -1.
         -4   -1    0    0    0  501 -0.00000000000E+00 -0.00000000000E+00 -0.16240289475E+02  0.16302251447E+02  0.14200000000E+01 0.  1.
       1023    2    1    2    0    0  0.00000000000E+00  0.00000000000E+00 -0.10239294830E+02  0.22468963433E+02  0.20000278976E+02 0.  0.
        -11    1    3    3    0    0  0.75542639341E+01 -0.65525432065E+01 -0.51106979375E+01  0.11230403365E+02  0.51100000000E-03 0.  1.
         11    1    3    3    0    0 -0.75542639341E+01  0.65525432065E+01 -0.51285968929E+01  0.11238560068E+02  0.51100000000E-03 0. -1.
<mgrwt>
<rscale>  0 0.20000279E+02</rscale>
<asrwt>0</asrwt>
<pdfrwt beam="1">  1        4 0.94074375E-03 0.20000279E+02</pdfrwt>
<pdfrwt beam="2">  1       -4 0.25160198E-02 0.20000279E+02</pdfrwt>
<totfact> 0.12868724E+06</totfact>
</mgrwt>
</event>
<event>
 5    1  0.1154861E-006  0.2000030E+02  0.7818608E-02  0.1745322E+00
         -4   -1    0    0    0  501 -0.00000000000E+00  0.00000000000E+00  0.44021469663E+02  0.44044366170E+02  0.14200000000E+01 0.  1.
          4   -1    0    0  501    0  0.00000000000E+00 -0.00000000000E+00 -0.20239110727E+01  0.24723705285E+01  0.14200000000E+01 0. -1.
       1023    2    1    2    0    0  0.00000000000E+00  0.00000000000E+00  0.41997558591E+02  0.46516736698E+02  0.20000296635E+02 0.  0.
        -11    1    3    3    0    0  0.54514258755E+00  0.99851849043E+01  0.21099304027E+02  0.23349126937E+02  0.51100000000E-03 0.  1.
         11    1    3    3    0    0 -0.54514258755E+00 -0.99851849043E+01  0.20898254563E+02  0.23167609762E+02  0.51100000000E-03 0. -1.
<mgrwt>
<rscale>  0 0.20000297E+02</rscale>
<asrwt>0</asrwt>
<pdfrwt beam="2">  1        4 0.34762910E-03 0.20000297E+02</pdfrwt>
<pdfrwt beam="1">  1       -4 0.68087916E-02 0.20000297E+02</pdfrwt>
<totfact> 0.11668909E+06</totfact>
</mgrwt>
</event>
<event>
 5    1  0.1154861E-006  0.2000064E+02  0.7818608E-02  0.1745315E+00
         -4   -1    0    0    0  501 -0.00000000000E+00  0.00000000000E+00  0.86165045350E+00  0.16609760697E+01  0.14200000000E+01 0.  1.
          4   -1    0    0  501    0  0.00000000000E+00 -0.00000000000E+00 -0.78479708484E+02  0.78492554066E+02  0.14200000000E+01 0. -1.
       1023    2    1    2    0    0  0.00000000000E+00  0.00000000000E+00 -0.77618058031E+02  0.80153530136E+02  0.20000636508E+02 0.  0.
        -11    1    3    3    0    0 -0.89872944255E+01  0.43857614807E+01 -0.38810018422E+02  0.40077723177E+02  0.51100000000E-03 0.  1.
         11    1    3    3    0    0  0.89872944255E+01 -0.43857614807E+01 -0.38808039609E+02  0.40075806958E+02  0.51100000000E-03 0. -1.
<mgrwt>
<rscale>  0 0.20000637E+02</rscale>
<asrwt>0</asrwt>
<pdfrwt beam="2">  1        4 0.12136272E-01 0.20000637E+02</pdfrwt>
<pdfrwt beam="1">  1       -4 0.19503638E-03 0.20000637E+02</pdfrwt>
<totfact> 0.10405483E+06</totfact>
</mgrwt>
</event>
<event>
 5    1  0.1154861E-006  0.2000053E+02  0.7818608E-02  0.1745318E+00
         -4   -1    0    0    0  501 -0.00000000000E+00  0.00000000000E+00  0.20271301811E+01  0.24750064184E+01  0.14200000000E+01 0.  1.
          4   -1    0    0  501    0  0.00000000000E+00 -0.00000000000E+00 -0.43965226668E+02  0.43988152450E+02  0.14200000000E+01 0. -1.
       1023    2    1    2    0    0  0.00000000000E+00  0.00000000000E+00 -0.41938096487E+02  0.46463158869E+02  0.20000529870E+02 0.  0.
        -11    1    3    3    0    0  0.99441126824E+01  0.10559327801E+01 -0.21132119599E+02  0.23378769217E+02  0.51100000000E-03 0. -1.
         11    1    3    3    0    0 -0.99441126824E+01 -0.10559327801E+01 -0.20805976888E+02  0.23084389652E+02  0.51100000000E-03 0.  1.
<mgrwt>
<rscale>  0 0.20000530E+02</rscale>
<asrwt>0</asrwt>
<pdfrwt beam="2">  1        4 0.68000959E-02 0.20000530E+02</pdfrwt>
<pdfrwt beam="1">  1       -4 0.34808175E-03 0.20000530E+02</pdfrwt>
<totfact> 0.11670967E+06</totfact>
</mgrwt>
</event>
<event>
 5    1  0.1154861E-006  0.2000041E+02  0.7818608E-02  0.1745320E+00
         -4   -1    0    0    0  501 -0.00000000000E+00  0.00000000000E+00  0.99284360728E+01  0.10029468722E+02  0.14200000000E+01 0.  1.
          4   -1    0    0  501    0  0.00000000000E+00 -0.00000000000E+00 -0.98693937960E+01  0.99710247166E+01  0.14200000000E+01 0. -1.
       1023    2    1    2    0    0  0.00000000000E+00  0.00000000000E+00  0.59042276788E-01  0.20000493439E+02  0.20000406291E+02 0.  0.
        -11    1    3    3    0    0  0.74874539212E+01  0.66287427450E+01 -0.13677300342E-01  0.10000119196E+02  0.51100000000E-03 0. -1.
         11    1    3    3    0    0 -0.74874539212E+01 -0.66287427450E+01  0.72719577130E-01  0.10000374243E+02  0.51100000000E-03 0.  1.
<mgrwt>
<rscale>  0 0.20000406E+02</rscale>
<asrwt>0</asrwt>
<pdfrwt beam="2">  1        4 0.15339578E-02 0.20000406E+02</pdfrwt>
<pdfrwt beam="1">  1       -4 0.15430412E-02 0.20000406E+02</pdfrwt>
<totfact> 0.13013476E+06</totfact>
</mgrwt>
</event>
<event>
 5    1  0.1154861E-006  0.2000211E+02  0.7818608E-02  0.1745286E+00
          4   -1    0    0  501    0  0.00000000000E+00  0.00000000000E+00  0.31019981186E+01  0.34115674297E+01  0.14200000000E+01 0.  1.
         -4   -1    0    0    0  501 -0.00000000000E+00 -0.00000000000E+00 -0.30384697597E+02  0.30417860675E+02  0.14200000000E+01 0. -1.
       1023    2    1    2    0    0  0.00000000000E+00  0.00000000000E+00 -0.27282699478E+02  0.33829428105E+02  0.20002112765E+02 0.  0.
        -11    1    3    3    0    0  0.67212382722E+01  0.74051859320E+01 -0.13478195563E+02  0.16783133751E+02  0.51100000000E-03 0.  1.
         11    1    3    3    0    0 -0.67212382722E+01 -0.74051859320E+01 -0.13804503915E+02  0.17046294354E+02  0.51100000000E-03 0. -1.
<mgrwt>
<rscale>  0 0.20002113E+02</rscale>
<asrwt>0</asrwt>
<pdfrwt beam="1">  1        4 0.50359453E-03 0.20002113E+02</pdfrwt>
<pdfrwt beam="2">  1       -4 0.47009327E-02 0.20002113E+02</pdfrwt>
<totfact> 0.12257432E+06</totfact>
</mgrwt>
</event>
<event>
 5    1  0.1154861E-006  0.2000054E+02  0.7818608E-02  0.1745317E+00
          4   -1    0    0  501    0  0.00000000000E+00  0.00000000000E+00  0.95864598545E+01  0.96910583809E+01  0.14200000000E+01 0.  1.
         -4   -1    0    0    0  501 -0.00000000000E+00 -0.00000000000E+00 -0.10221395188E+02  0.10319560048E+02  0.14200000000E+01 0. -1.
       1023    2    1    2    0    0  0.00000000000E+00  0.00000000000E+00 -0.63493533300E+00  0.20010618429E+02  0.20000542668E+02 0.  0.
        -11    1    3    3    0    0  0.78561320349E+01  0.61876161878E+01 -0.32214516204E+00  0.10005457631E+02  0.51100000000E-03 0.  1.
         11    1    3    3    0    0 -0.78561320349E+01 -0.61876161878E+01 -0.31279017096E+00  0.10005160798E+02  0.51100000000E-03 0. -1.
<mgrwt>
<rscale>  0 0.20000543E+02</rscale>
<asrwt>0</asrwt>
<pdfrwt beam="1">  1        4 0.14904372E-02 0.20000543E+02</pdfrwt>
<pdfrwt beam="2">  1       -4 0.15881195E-02 0.20000543E+02</pdfrwt>
<totfact> 0.13012694E+06</totfact>
</mgrwt>
</event>
<event>
 5    1  0.1170733E-006  0.2000106E+02  0.7818608E-02  0.1745307E+00
         -4   -1    0    0    0  501 -0.00000000000E+00  0.00000000000E+00  0.35681669516E+02  0.35709913742E+02  0.14200000000E+01 0.  1.
          4   -1    0    0  501    0  0.00000000000E+00 -0.00000000000E+00 -0.25916720082E+01  0.29551926837E+01  0.14200000000E+01 0. -1.
       1023    2    1    2    0    0  0.00000000000E+00  0.00000000000E+00  0.33089997508E+02  0.38665106425E+02  0.20001062968E+02 0.  0.
        -11    1    3    3    0    0  0.93894204454E+01  0.34410156382E+01  0.16726599626E+02  0.19487969115E+02  0.51100000000E-03 0. -1.
         11    1    3    3    0    0 -0.93894204454E+01 -0.34410156382E+01  0.16363397882E+02  0.19177137310E+02  0.51100000000E-03 0.  1.
<mgrwt>
<rscale>  0 0.20001063E+02</rscale>
<asrwt>0</asrwt>
<pdfrwt beam="2">  1        4 0.42885456E-03 0.20001063E+02</pdfrwt>
<pdfrwt beam="1">  1       -4 0.55196231E-02 0.20001063E+02</pdfrwt>
<totfact> 0.12023906E+06</totfact>
</mgrwt>
</event>
<event>
 5    1  0.1154861E-006  0.2000192E+02  0.7818608E-02  0.1745290E+00
          4   -1    0    0  501    0  0.00000000000E+00  0.00000000000E+00  0.25357195528E+02  0.25396924322E+02  0.14200000000E+01 0.  1.
         -4   -1    0    0    0  501 -0.00000000000E+00 -0.00000000000E+00 -0.37722852645E+01  0.40306992094E+01  0.14200000000E+01 0. -1.
       1023    2    1    2    0    0  0.00000000000E+00  0.00000000000E+00  0.21584910263E+02  0.29427623532E+02  0.20001916799E+02 0.  0.
        -11    1    3    3    0    0 -0.99830579218E+01 -0.58905202553E+00  0.10944931924E+02  0.14825652189E+02  0.51100000000E-03 0.  1.
         11    1    3    3    0    0  0.99830579218E+01  0.58905202553E+00  0.10639978340E+02  0.14601971342E+02  0.51100000000E-03 0. -1.
<mgrwt>
<rscale>  0 0.20001917E+02</rscale>
<asrwt>0</asrwt>
<pdfrwt beam="1">  1        4 0.39240411E-02 0.20001917E+02</pdfrwt>
<pdfrwt beam="2">  1       -4 0.60328563E-03 0.20001917E+02</pdfrwt>
<totfact> 0.12483313E+06</totfact>
</mgrwt>
</event>
<event>
 5    1  0.1154861E-006  0.2000072E+02  0.7818608E-02  0.1745314E+00
         -4   -1    0    0    0  501 -0.00000000000E+00  0.00000000000E+00  0.26442196642E+02  0.26480297643E+02  0.14200000000E+01 0.  1.
          4   -1    0    0  501    0  0.00000000000E+00 -0.00000000000E+00 -0.36064421808E+01  0.38759289472E+01  0.14200000000E+01 0. -1.
       1023    2    1    2    0    0  0.00000000000E+00  0.00000000000E+00  0.22835754461E+02  0.30356226590E+02  0.20000720261E+02 0.  0.
        -11    1    3    3    0    0 -0.63509212473E+01 -0.77248223097E+01  0.11434646684E+02  0.15190728273E+02  0.51100000000E-03 0.  1.
         11    1    3    3    0    0  0.63509212473E+01  0.77248223097E+01  0.11401107777E+02  0.15165498317E+02  0.51100000000E-03 0. -1.
<mgrwt>
<rscale>  0 0.20000720E+02</rscale>
<asrwt>0</asrwt>
<pdfrwt beam="2">  1        4 0.57849783E-03 0.20000720E+02</pdfrwt>
<pdfrwt beam="1">  1       -4 0.40916910E-02 0.20000720E+02</pdfrwt>
<totfact> 0.12436266E+06</totfact>
</mgrwt>
</event>
<event>
 5    1  0.1154861E-006  0.2000286E+02  0.7818608E-02  0.1745271E+00
         -4   -1    0    0    0  501 -0.00000000000E+00  0.00000000000E+00  0.64454515189E+01  0.66000185820E+01  0.14200000000E+01 0. -1.
          4   -1    0    0  501    0  0.00000000000E+00 -0.00000000000E+00 -0.15147215561E+02  0.15213630049E+02  0.14200000000E+01 0.  1.
       1023    2    1    2    0    0  0.00000000000E+00  0.00000000000E+00 -0.87017640425E+01  0.21813648631E+02  0.20002864023E+02 0.  0.
        -11    1    3    3    0    0  0.91805836615E+01  0.39666271727E+01 -0.44672904250E+01  0.10953261227E+02  0.51100000000E-03 0. -1.
         11    1    3    3    0    0 -0.91805836615E+01 -0.39666271727E+01 -0.42344736175E+01  0.10860387404E+02  0.51100000000E-03 0.  1.
<mgrwt>
<rscale>  0 0.20002864E+02</rscale>
<asrwt>0</asrwt>
<pdfrwt beam="2">  1        4 0.23473394E-02 0.20002864E+02</pdfrwt>
<pdfrwt beam="1">  1       -4 0.10086065E-02 0.20002864E+02</pdfrwt>
<totfact> 0.12903288E+06</totfact>
</mgrwt>
</event>
<event>
 4    1  0.1154861E-006  0.2002939E+02  0.7818608E-02  0.1744744E+00
          4   -1    0    0  501    0  0.00000000000E+00  0.00000000000E+00  0.51238259423E+01  0.53169532899E+01  0.14200000000E+01 0. -1.
         -4   -1    0    0    0  501 -0.00000000000E+00 -0.00000000000E+00 -0.18991873099E+02  0.19044884977E+02  0.14200000000E+01 0.  1.
        -11    1    1    2    0    0  0.67935568141E+01  0.73501746761E+01 -0.73493978129E+01  0.12417372123E+02  0.51100000000E-03 0.  1.
         11    1    1    2    0    0 -0.67935568141E+01 -0.73501746761E+01 -0.65186493435E+01  0.11944466145E+02  0.51100000000E-03 0. -1.
<mgrwt>
<rscale>  0 0.20029389E+02</rscale>
<asrwt>0</asrwt>
<pdfrwt beam="1">  1        4 0.80721471E-03 0.20029389E+02</pdfrwt>
<pdfrwt beam="2">  1       -4 0.29407604E-02 0.20029389E+02</pdfrwt>
<totfact> 0.12723254E+06</totfact>
</mgrwt>
</event>
<event>
 5    1  0.1154861E-006  0.2000073E+02  0.7818608E-02  0.1745314E+00
         -4   -1    0    0    0  501 -0.00000000000E+00  0.00000000000E+00  0.14604993128E+01  0.20370219053E+01  0.14200000000E+01 0.  1.
          4   -1    0    0  501    0  0.00000000000E+00 -0.00000000000E+00 -0.56600630049E+02  0.56618439770E+02  0.14200000000E+01 0. -1.
       1023    2    1    2    0    0  0.00000000000E+00  0.00000000000E+00 -0.55140130737E+02  0.58655461675E+02  0.20000729154E+02 0.  0.
        -11    1    3    3    0    0 -0.45073821030E+01 -0.89269043187E+01 -0.27469441451E+02  0.29233137499E+02  0.51100000000E-03 0. -1.
         11    1    3    3    0    0  0.45073821030E+01  0.89269043187E+01 -0.27670689285E+02  0.29422324176E+02  0.51100000000E-03 0.  1.
<mgrwt>
<rscale>  0 0.20000729E+02</rscale>
<asrwt>0</asrwt>
<pdfrwt beam="2">  1        4 0.87535057E-02 0.20000729E+02</pdfrwt>
<pdfrwt beam="1">  1       -4 0.27041012E-03 0.20000729E+02</pdfrwt>
<totfact> 0.11169913E+06</totfact>
</mgrwt>
</event>
<event>
 5    1  0.1154861E-006  0.2000070E+02  0.7818608E-02  0.1745314E+00
         -4   -1    0    0    0  501 -0.00000000000E+00  0.00000000000E+00  0.58391185868E+01  0.60093016126E+01  0.14200000000E+01 0. -1.
          4   -1    0    0  501    0  0.00000000000E+00 -0.00000000000E+00 -0.16680285671E+02  0.16740619167E+02  0.14200000000E+01 0.  1.
       1023    2    1    2    0    0  0.00000000000E+00  0.00000000000E+00 -0.10841167085E+02  0.22749920779E+02  0.20000699780E+02 0.  0.
        -11    1    3    3    0    0 -0.97397007056E+01 -0.22679593408E+01 -0.54659145260E+01  0.11396562257E+02  0.51100000000E-03 0. -1.
         11    1    3    3    0    0  0.97397007056E+01  0.22679593408E+01 -0.53752525586E+01  0.11353358522E+02  0.51100000000E-03 0.  1.
<mgrwt>
<rscale>  0 0.20000700E+02</rscale>
<asrwt>0</asrwt>
<pdfrwt beam="2">  1        4 0.25839298E-02 0.20000700E+02</pdfrwt>
<pdfrwt beam="1">  1       -4 0.91605798E-03 0.20000700E+02</pdfrwt>
<totfact> 0.12851999E+06</totfact>
</mgrwt>
</event>
<event>
 5    1  0.1154861E-006  0.2000023E+02  0.7818608E-02  0.1745323E+00
          4   -1    0    0  501    0  0.00000000000E+00  0.00000000000E+00  0.26813271725E+02  0.26850846180E+02  0.14200000000E+01 0.  1.
         -4   -1    0    0    0  501 -0.00000000000E+00 -0.00000000000E+00 -0.35526629735E+01  0.38259396497E+01  0.14200000000E+01 0. -1.
       1023    2    1    2    0    0  0.00000000000E+00  0.00000000000E+00  0.23260608752E+02  0.30676785830E+02  0.20000231733E+02 0.  0.
        -11    1    3    3    0    0  0.81636675491E+01 -0.57755246121E+01  0.11610620992E+02  0.15323468031E+02  0.51100000000E-03 0.  1.
         11    1    3    3    0    0 -0.81636675491E+01  0.57755246121E+01  0.11649987759E+02  0.15353317799E+02  0.51100000000E-03 0. -1.
<mgrwt>
<rscale>  0 0.20000232E+02</rscale>
<asrwt>0</asrwt>
<pdfrwt beam="1">  1        4 0.41490303E-02 0.20000232E+02</pdfrwt>
<pdfrwt beam="2">  1       -4 0.57047516E-03 0.20000232E+02</pdfrwt>
<totfact> 0.12420249E+06</totfact>
</mgrwt>
</event>
<event>
 5    1  0.1154861E-006  0.2000087E+02  0.7818608E-02  0.1745311E+00
         -4   -1    0    0    0  501 -0.00000000000E+00  0.00000000000E+00  0.79669012514E+00  0.16282245409E+01  0.14200000000E+01 0. -1.
          4   -1    0    0  501    0  0.00000000000E+00 -0.00000000000E+00 -0.81644494682E+02  0.81656842407E+02  0.14200000000E+01 0.  1.
       1023    2    1    2    0    0  0.00000000000E+00  0.00000000000E+00 -0.80847804557E+02  0.83285066948E+02  0.20000871852E+02 0.  0.
        -11    1    3    3    0    0 -0.93097731183E+01  0.36518089404E+01 -0.40283652799E+02  0.41506388269E+02  0.51100000000E-03 0.  1.
         11    1    3    3    0    0  0.93097731183E+01 -0.36518089404E+01 -0.40564151758E+02  0.41778678679E+02  0.51100000000E-03 0. -1.
<mgrwt>
<rscale>  0 0.20000872E+02</rscale>
<asrwt>0</asrwt>
<pdfrwt beam="2">  1        4 0.12625601E-01 0.20000872E+02</pdfrwt>
<pdfrwt beam="1">  1       -4 0.18748179E-03 0.20000872E+02</pdfrwt>
<totfact> 0.10304179E+06</totfact>
</mgrwt>
</event>
<event>
 4    1  0.1154861E-006  0.2002723E+02  0.7818608E-02  0.1744787E+00
         -4   -1    0    0    0  501 -0.00000000000E+00  0.00000000000E+00  0.19371039677E+02  0.19423016711E+02  0.14200000000E+01 0. -1.
          4   -1    0    0  501    0  0.00000000000E+00 -0.00000000000E+00 -0.50188621115E+01  0.52158773849E+01  0.14200000000E+01 0.  1.
        -11    1    1    2    0    0 -0.56345538875E+01 -0.82618787040E+01  0.78102301638E+01  0.12688834962E+02  0.51100000000E-03 0. -1.
         11    1    1    2    0    0  0.56345538875E+01  0.82618787040E+01  0.65419474016E+01  0.11950059134E+02  0.51100000000E-03 0.  1.
<mgrwt>
<rscale>  0 0.20027234E+02</rscale>
<asrwt>0</asrwt>
<pdfrwt beam="2">  1        4 0.79128591E-03 0.20027234E+02</pdfrwt>
<pdfrwt beam="1">  1       -4 0.29993131E-02 0.20027234E+02</pdfrwt>
<totfact> 0.12710519E+06</totfact>
</mgrwt>
</event>
<event>
 5    1  0.1154861E-006  0.2000028E+02  0.7818608E-02  0.1745322E+00
          4   -1    0    0  501    0  0.00000000000E+00  0.00000000000E+00  0.90726134186E+00  0.16850884672E+01  0.14200000000E+01 0.  1.
         -4   -1    0    0    0  501 -0.00000000000E+00 -0.00000000000E+00 -0.76365867455E+02  0.76379068548E+02  0.14200000000E+01 0. -1.
       1023    2    1    2    0    0  0.00000000000E+00  0.00000000000E+00 -0.75458606114E+02  0.78064157015E+02  0.20000284344E+02 0.  0.
        -11    1    3    3    0    0 -0.97159821630E+01  0.23665155684E+01 -0.37909773819E+02  0.39206525689E+02  0.51100000000E-03 0.  1.
         11    1    3    3    0    0  0.97159821630E+01 -0.23665155684E+01 -0.37548832295E+02  0.38857631326E+02  0.51100000000E-03 0. -1.
<mgrwt>
<rscale>  0 0.20000284E+02</rscale>
<asrwt>0</asrwt>
<pdfrwt beam="1">  1        4 0.20042705E-03 0.20000284E+02</pdfrwt>
<pdfrwt beam="2">  1       -4 0.11809440E-01 0.20000284E+02</pdfrwt>
<totfact> 0.10474599E+06</totfact>
</mgrwt>
</event>
<event>
 5    1  0.1154861E-006  0.2000349E+02  0.7818608E-02  0.1745259E+00
         -4   -1    0    0    0  501 -0.00000000000E+00  0.00000000000E+00  0.18004647310E+01  0.22930488978E+01  0.14200000000E+01 0.  1.
          4   -1    0    0  501    0  0.00000000000E+00 -0.00000000000E+00 -0.48370599655E+02  0.48391438406E+02  0.14200000000E+01 0. -1.
       1023    2    1    2    0    0  0.00000000000E+00  0.00000000000E+00 -0.46570134924E+02  0.50684487304E+02  0.20003494354E+02 0.  0.
        -11    1    3    3    0    0 -0.16906963098E+01  0.98565310645E+01 -0.22882142815E+02  0.24972026724E+02  0.51100000000E-03 0. -1.
         11    1    3    3    0    0  0.16906963098E+01 -0.98565310645E+01 -0.23687992109E+02  0.25712460580E+02  0.51100000000E-03 0.  1.
<mgrwt>
<rscale>  0 0.20003494E+02</rscale>
<asrwt>0</asrwt>
<pdfrwt beam="2">  1        4 0.74811239E-02 0.20003494E+02</pdfrwt>
<pdfrwt beam="1">  1       -4 0.31648868E-03 0.20003494E+02</pdfrwt>
<totfact> 0.11487477E+06</totfact>
</mgrwt>
</event>
<event>
 5    1  0.1154861E-006  0.2000077E+02  0.7818608E-02  0.1745313E+00
         -4   -1    0    0    0  501 -0.00000000000E+00  0.00000000000E+00  0.42576713069E+00  0.14824566265E+01  0.14200000000E+01 0.  1.
          4   -1    0    0  501    0  0.00000000000E+00 -0.00000000000E+00 -0.10375329655E+03  0.10376301338E+03  0.14200000000E+01 0. -1.
       1023    2    1    2    0    0  0.00000000000E+00  0.00000000000E+00 -0.10332752942E+03  0.10524547001E+03  0.20000765493E+02 0.  0.
        -11    1    3    3    0    0 -0.29088218323E+01  0.95679792987E+01 -0.51592677714E+02  0.52552943460E+02  0.51100000000E-03 0. -1.
         11    1    3    3    0    0  0.29088218323E+01 -0.95679792987E+01 -0.51734851709E+02  0.52692526548E+02  0.51100000000E-03 0.  1.
<mgrwt>
<rscale>  0 0.20000765E+02</rscale>
<asrwt>0</asrwt>
<pdfrwt beam="2">  1        4 0.16044068E-01 0.20000765E+02</pdfrwt>
<pdfrwt beam="1">  1       -4 0.14753397E-03 0.20000765E+02</pdfrwt>
<totfact> 0.96536359E+05</totfact>
</mgrwt>
</event>
<event>
 5    1  0.1154861E-006  0.2000044E+02  0.7818608E-02  0.1745319E+00
          4   -1    0    0  501    0  0.00000000000E+00  0.00000000000E+00  0.33811902883E+00  0.14597001328E+01  0.14200000000E+01 0.  1.
         -4   -1    0    0    0  501 -0.00000000000E+00 -0.00000000000E+00 -0.11012172017E+03  0.11013087511E+03  0.14200000000E+01 0. -1.
       1023    2    1    2    0    0  0.00000000000E+00  0.00000000000E+00 -0.10978360114E+03  0.11159057524E+03  0.20000435100E+02 0.  0.
        -11    1    3    3    0    0 -0.68167406479E+01  0.73168506625E+01 -0.54945926452E+02  0.55848537050E+02  0.51100000000E-03 0.  1.
         11    1    3    3    0    0  0.68167406479E+01 -0.73168506625E+01 -0.54837674686E+02  0.55742038193E+02  0.51100000000E-03 0. -1.
<mgrwt>
<rscale>  0 0.20000435E+02</rscale>
<asrwt>0</asrwt>
<pdfrwt beam="1">  1        4 0.13899810E-03 0.20000435E+02</pdfrwt>
<pdfrwt beam="2">  1       -4 0.17028772E-01 0.20000435E+02</pdfrwt>
<totfact> 0.94825570E+05</totfact>
</mgrwt>
</event>
<event>
 5    1  0.1154861E-006  0.2000031E+02  0.7818608E-02  0.1745322E+00
          4   -1    0    0  501    0  0.00000000000E+00  0.00000000000E+00  0.32438128543E+01  0.35410057658E+01  0.14200000000E+01 0.  1.
         -4   -1    0    0    0  501 -0.00000000000E+00 -0.00000000000E+00 -0.29163259722E+02  0.29197810151E+02  0.14200000000E+01 0. -1.
       1023    2    1    2    0    0  0.00000000000E+00  0.00000000000E+00 -0.25919446867E+02  0.32738815916E+02  0.20000308540E+02 0.  0.
        -11    1    3    3    0    0 -0.88944881188E+01  0.45704124598E+01 -0.12877939635E+02  0.16304659409E+02  0.51100000000E-03 0. -1.
         11    1    3    3    0    0  0.88944881188E+01 -0.45704124598E+01 -0.13041507232E+02  0.16434156507E+02  0.51100000000E-03 0.  1.
<mgrwt>
<rscale>  0 0.20000309E+02</rscale>
<asrwt>0</asrwt>
<pdfrwt beam="1">  1        4 0.52456687E-03 0.20000309E+02</pdfrwt>
<pdfrwt beam="2">  1       -4 0.45121739E-02 0.20000309E+02</pdfrwt>
<totfact> 0.12314514E+06</totfact>
</mgrwt>
</event>
<event>
 5    1  0.1154861E-006  0.2000075E+02  0.7818608E-02  0.1745313E+00
         -4   -1    0    0    0  501 -0.00000000000E+00  0.00000000000E+00  0.20249881095E+02  0.20299607985E+02  0.14200000000E+01 0. -1.
          4   -1    0    0  501    0  0.00000000000E+00 -0.00000000000E+00 -0.47795226557E+01  0.49860040931E+01  0.14200000000E+01 0.  1.
       1023    2    1    2    0    0  0.00000000000E+00  0.00000000000E+00  0.15470358439E+02  0.25285612078E+02  0.20000754684E+02 0.  0.
        -11    1    3    3    0    0  0.17520813623E+01  0.98455898900E+01  0.77933523500E+01  0.12678397789E+02  0.51100000000E-03 0.  1.
         11    1    3    3    0    0 -0.17520813623E+01 -0.98455898900E+01  0.76770060888E+01  0.12607214289E+02  0.51100000000E-03 0. -1.
<mgrwt>
<rscale>  0 0.20000755E+02</rscale>
<asrwt>0</asrwt>
<pdfrwt beam="2">  1        4 0.75501951E-03 0.20000755E+02</pdfrwt>
<pdfrwt beam="1">  1       -4 0.31350747E-02 0.20000755E+02</pdfrwt>
<totfact> 0.12708710E+06</totfact>
</mgrwt>
</event>
<event>
 5    1  0.1174167E-006  0.2000234E+02  0.7818608E-02  0.1745281E+00
          4   -1    0    0  501    0  0.00000000000E+00  0.00000000000E+00  0.17505710408E+02  0.17563208616E+02  0.14200000000E+01 0.  1.
         -4   -1    0    0    0  501 -0.00000000000E+00 -0.00000000000E+00 -0.55574758864E+01  0.57360211147E+01  0.14200000000E+01 0. -1.
       1023    2    1    2    0    0  0.00000000000E+00  0.00000000000E+00  0.11948234522E+02  0.23299229731E+02  0.20002344809E+02 0.  0.
        -11    1    3    3    0    0  0.99818189003E+01  0.61200708657E+00  0.58455215774E+01  0.11583668849E+02  0.51100000000E-03 0.  1.
         11    1    3    3    0    0 -0.99818189003E+01 -0.61200708657E+00  0.61027129446E+01  0.11715560882E+02  0.51100000000E-03 0. -1.
<mgrwt>
<rscale>  0 0.20002345E+02</rscale>
<asrwt>0</asrwt>
<pdfrwt beam="1">  1        4 0.27113434E-02 0.20002345E+02</pdfrwt>
<pdfrwt beam="2">  1       -4 0.87315347E-03 0.20002345E+02</pdfrwt>
<totfact> 0.12818426E+06</totfact>
</mgrwt>
</event>
<event>
 5    1  0.1154861E-006  0.2000191E+02  0.7818608E-02  0.1745290E+00
          4   -1    0    0  501    0  0.00000000000E+00  0.00000000000E+00  0.94387305379E+01  0.95449480966E+01  0.14200000000E+01 0.  1.
         -4   -1    0    0    0  501 -0.00000000000E+00 -0.00000000000E+00 -0.10382565341E+02  0.10479220537E+02  0.14200000000E+01 0. -1.
       1023    2    1    2    0    0  0.00000000000E+00  0.00000000000E+00 -0.94383480295E+00  0.20024168633E+02  0.20001912542E+02 0.  0.
        -11    1    3    3    0    0 -0.88137673929E+01 -0.47261611605E+01 -0.46633460045E+00  0.10011821173E+02  0.51100000000E-03 0.  1.
         11    1    3    3    0    0  0.88137673929E+01  0.47261611605E+01 -0.47750020250E+00  0.10012347461E+02  0.51100000000E-03 0. -1.
<mgrwt>
<rscale>  0 0.20001913E+02</rscale>
<asrwt>0</asrwt>
<pdfrwt beam="1">  1        4 0.14677180E-02 0.20001913E+02</pdfrwt>
<pdfrwt beam="2">  1       -4 0.16129234E-02 0.20001913E+02</pdfrwt>
<totfact> 0.13010070E+06</totfact>
</mgrwt>
</event>
<event>
 5    1  0.1162749E-006  0.2000057E+02  0.7818608E-02  0.1745317E+00
         -4   -1    0    0    0  501 -0.00000000000E+00  0.00000000000E+00  0.92144799743E+01  0.93232527154E+01  0.14200000000E+01 0. -1.
          4   -1    0    0  501    0  0.00000000000E+00 -0.00000000000E+00 -0.10633176426E+02  0.10727573859E+02  0.14200000000E+01 0.  1.
       1023    2    1    2    0    0  0.00000000000E+00  0.00000000000E+00 -0.14186964514E+01  0.20050826574E+02  0.20000573659E+02 0.  0.
        -11    1    3    3    0    0 -0.97863593962E+01  0.20568402210E+01 -0.75757819949E+00  0.10028825799E+02  0.51100000000E-03 0.  1.
         11    1    3    3    0    0  0.97863593962E+01 -0.20568402210E+01 -0.66111825189E+00  0.10022000775E+02  0.51100000000E-03 0. -1.
<mgrwt>
<rscale>  0 0.20000574E+02</rscale>
<asrwt>0</asrwt>
<pdfrwt beam="2">  1        4 0.16515018E-02 0.20000574E+02</pdfrwt>
<pdfrwt beam="1">  1       -4 0.14332408E-02 0.20000574E+02</pdfrwt>
<totfact> 0.13010267E+06</totfact>
</mgrwt>
</event>
<event>
 4    1  0.1154861E-006  0.2003183E+02  0.7818608E-02  0.1744696E+00
          4   -1    0    0  501    0  0.00000000000E+00  0.00000000000E+00  0.18540334698E+01  0.23353458217E+01  0.14200000000E+01 0. -1.
         -4   -1    0    0    0  501 -0.00000000000E+00 -0.00000000000E+00 -0.47398675128E+02  0.47419940994E+02  0.14200000000E+01 0.  1.
        -11    1    1    2    0    0 -0.98891437155E+01  0.15503365046E+01 -0.21912482046E+02  0.24090570279E+02  0.51100000000E-03 0. -1.
         11    1    1    2    0    0  0.98891437155E+01 -0.15503365046E+01 -0.23632159612E+02  0.25664716536E+02  0.51100000000E-03 0.  1.
<mgrwt>
<rscale>  0 0.20031829E+02</rscale>
<asrwt>0</asrwt>
<pdfrwt beam="1">  1        4 0.32389582E-03 0.20031829E+02</pdfrwt>
<pdfrwt beam="2">  1       -4 0.73307629E-02 0.20031829E+02</pdfrwt>
<totfact> 0.11493577E+06</totfact>
</mgrwt>
</event>
<event>
 5    1  0.1154861E-006  0.2000426E+02  0.7818608E-02  0.1745243E+00
         -4   -1    0    0    0  501 -0.00000000000E+00  0.00000000000E+00  0.11496193623E+01  0.18270261843E+01  0.14200000000E+01 0.  1.
          4   -1    0    0  501    0  0.00000000000E+00 -0.00000000000E+00 -0.66531647573E+02  0.66546799538E+02  0.14200000000E+01 0. -1.
       1023    2    1    2    0    0  0.00000000000E+00  0.00000000000E+00 -0.65382028210E+02  0.68373825722E+02  0.20004260321E+02 0.  0.
        -11    1    3    3    0    0 -0.38281393238E+01 -0.92403585190E+01 -0.32482231490E+02  0.33987265837E+02  0.51100000000E-03 0.  1.
         11    1    3    3    0    0  0.38281393238E+01  0.92403585190E+01 -0.32899796720E+02  0.34386559885E+02  0.51100000000E-03 0. -1.
<mgrwt>
<rscale>  0 0.20004260E+02</rscale>
<asrwt>0</asrwt>
<pdfrwt beam="2">  1        4 0.10288910E-01 0.20004260E+02</pdfrwt>
<pdfrwt beam="1">  1       -4 0.23013832E-03 0.20004260E+02</pdfrwt>
<totfact> 0.10803968E+06</totfact>
</mgrwt>
</event>
<event>
 5    1  0.1154861E-006  0.2001090E+02  0.7818608E-02  0.1745111E+00
         -4   -1    0    0    0  501 -0.00000000000E+00  0.00000000000E+00  0.63821794760E+02  0.63837589917E+02  0.14200000000E+01 0. -1.
          4   -1    0    0  501    0  0.00000000000E+00 -0.00000000000E+00 -0.12278490749E+01  0.18772355608E+01  0.14200000000E+01 0.  1.
       1023    2    1    2    0    0  0.00000000000E+00  0.00000000000E+00  0.62593945685E+02  0.65714825478E+02  0.20010903306E+02 0.  0.
        -11    1    3    3    0    0  0.59153244171E+01 -0.80685585059E+01  0.31717051630E+02  0.33257541456E+02  0.51100000000E-03 0.  1.
         11    1    3    3    0    0 -0.59153244171E+01  0.80685585059E+01  0.30876894055E+02  0.32457284022E+02  0.51100000000E-03 0. -1.
<mgrwt>
<rscale>  0 0.20010903E+02</rscale>
<asrwt>0</asrwt>
<pdfrwt beam="2">  1        4 0.24006770E-03 0.20010903E+02</pdfrwt>
<pdfrwt beam="1">  1       -4 0.98699045E-02 0.20010903E+02</pdfrwt>
<totfact> 0.10892817E+06</totfact>
</mgrwt>
</event>
<event>
 5    1  0.1154861E-006  0.2000005E+02  0.7818608E-02  0.1745327E+00
         -4   -1    0    0    0  501 -0.00000000000E+00  0.00000000000E+00  0.40223169033E+01  0.42656105390E+01  0.14200000000E+01 0.  1.
          4   -1    0    0  501    0  0.00000000000E+00 -0.00000000000E+00 -0.23866592128E+02  0.23908797958E+02  0.14200000000E+01 0. -1.
       1023    2    1    2    0    0  0.00000000000E+00  0.00000000000E+00 -0.19844275225E+02  0.28174408497E+02  0.20000050874E+02 0.  0.
        -11    1    3    3    0    0 -0.99858348919E+01 -0.53243213173E+00 -0.99379516724E+01  0.14098342674E+02  0.51100000000E-03 0. -1.
         11    1    3    3    0    0  0.99858348919E+01  0.53243213173E+00 -0.99063235522E+01  0.14076065823E+02  0.51100000000E-03 0.  1.
<mgrwt>
<rscale>  0 0.20000051E+02</rscale>
<asrwt>0</asrwt>
<pdfrwt beam="2">  1        4 0.36937448E-02 0.20000051E+02</pdfrwt>
<pdfrwt beam="1">  1       -4 0.64077949E-03 0.20000051E+02</pdfrwt>
<totfact> 0.12552148E+06</totfact>
</mgrwt>
</event>
<event>
 5    1  0.1239582E-006  0.2000129E+02  0.7818608E-02  0.1745302E+00
         -4   -1    0    0    0  501 -0.00000000000E+00  0.00000000000E+00  0.10306565158E+02  0.10403926439E+02  0.14200000000E+01 0.  1.
          4   -1    0    0  501    0  0.00000000000E+00 -0.00000000000E+00 -0.95078500319E+01  0.96133039185E+01  0.14200000000E+01 0. -1.
       1023    2    1    2    0    0  0.00000000000E+00  0.00000000000E+00  0.79871512577E+00  0.20017230358E+02  0.20001289092E+02 0.  0.
        -11    1    3    3    0    0 -0.43835793769E+01  0.89887217231E+01  0.40152819218E+00  0.10008701790E+02  0.51100000000E-03 0.  1.
         11    1    3    3    0    0  0.43835793769E+01 -0.89887217231E+01  0.39718693359E+00  0.10008528568E+02  0.51100000000E-03 0. -1.
<mgrwt>
<rscale>  0 0.20001289E+02</rscale>
<asrwt>0</asrwt>
<pdfrwt beam="2">  1        4 0.14783473E-02 0.20001289E+02</pdfrwt>
<pdfrwt beam="1">  1       -4 0.16012266E-02 0.20001289E+02</pdfrwt>
<totfact> 0.13011310E+06</totfact>
</mgrwt>
</event>
<event>
 5    1  0.1154861E-006  0.2000017E+02  0.7818608E-02  0.1745325E+00
          4   -1    0    0  501    0  0.00000000000E+00  0.00000000000E+00  0.35530109970E+01  0.38262628170E+01  0.14200000000E+01 0. -1.
         -4   -1    0    0    0  501 -0.00000000000E+00 -0.00000000000E+00 -0.26810662098E+02  0.26848240206E+02  0.14200000000E+01 0.  1.
       1023    2    1    2    0    0  0.00000000000E+00  0.00000000000E+00 -0.23257651101E+02  0.30674503023E+02  0.20000170023E+02 0.  0.
        -11    1    3    3    0    0  0.50199150430E+01 -0.86487668049E+01 -0.11580673595E+02  0.15300742317E+02  0.51100000000E-03 0.  1.
         11    1    3    3    0    0 -0.50199150430E+01  0.86487668049E+01 -0.11676977506E+02  0.15373760705E+02  0.51100000000E-03 0. -1.
<mgrwt>
<rscale>  0 0.20000170E+02</rscale>
<asrwt>0</asrwt>
<pdfrwt beam="1">  1        4 0.57052709E-03 0.20000170E+02</pdfrwt>
<pdfrwt beam="2">  1       -4 0.41486271E-02 0.20000170E+02</pdfrwt>
<totfact> 0.12420445E+06</totfact>
</mgrwt>
</event>
<event>
 5    1  0.1154861E-006  0.2000242E+02  0.7818608E-02  0.1745280E+00
         -4   -1    0    0    0  501 -0.00000000000E+00  0.00000000000E+00  0.22851052706E+02  0.22895130700E+02  0.14200000000E+01 0.  1.
          4   -1    0    0  501    0  0.00000000000E+00 -0.00000000000E+00 -0.42123650713E+01  0.44452693387E+01  0.14200000000E+01 0. -1.
       1023    2    1    2    0    0  0.00000000000E+00  0.00000000000E+00  0.18638687635E+02  0.27340400039E+02  0.20002419792E+02 0.  0.
        -11    1    3    3    0    0  0.51035843991E+01  0.86006643493E+01  0.92117336052E+01  0.13596839237E+02  0.51100000000E-03 0. -1.
         11    1    3    3    0    0 -0.51035843991E+01 -0.86006643493E+01  0.94269540293E+01  0.13743560801E+02  0.51100000000E-03 0.  1.
<mgrwt>
<rscale>  0 0.20002420E+02</rscale>
<asrwt>0</asrwt>
<pdfrwt beam="2">  1        4 0.66936249E-03 0.20002420E+02</pdfrwt>
<pdfrwt beam="1">  1       -4 0.35368529E-02 0.20002420E+02</pdfrwt>
<totfact> 0.12593953E+06</totfact>
</mgrwt>
</event>
<event>
 5    1  0.1154861E-006  0.2000164E+02  0.7818608E-02  0.1745295E+00
         -4   -1    0    0    0  501 -0.00000000000E+00  0.00000000000E+00  0.38360703473E+02  0.38386976580E+02  0.14200000000E+01 0.  1.
          4   -1    0    0  501    0  0.00000000000E+00 -0.00000000000E+00 -0.23846444888E+01  0.27754151650E+01  0.14200000000E+01 0. -1.
       1023    2    1    2    0    0  0.00000000000E+00  0.00000000000E+00  0.35976058984E+02  0.41162391745E+02  0.20001641785E+02 0.  0.
        -11    1    3    3    0    0 -0.40031367278E+01 -0.91646504074E+01  0.17942126799E+02  0.20541076775E+02  0.51100000000E-03 0.  1.
         11    1    3    3    0    0  0.40031367278E+01  0.91646504074E+01  0.18033932185E+02  0.20621314970E+02  0.51100000000E-03 0. -1.
<mgrwt>
<rscale>  0 0.20001642E+02</rscale>
<asrwt>0</asrwt>
<pdfrwt beam="2">  1        4 0.39894868E-03 0.20001642E+02</pdfrwt>
<pdfrwt beam="1">  1       -4 0.59337269E-02 0.20001642E+02</pdfrwt>
<totfact> 0.11906870E+06</totfact>
</mgrwt>
</event>
<event>
 5    1  0.1154861E-006  0.2000447E+02  0.7818608E-02  0.1745239E+00
          4   -1    0    0  501    0  0.00000000000E+00  0.00000000000E+00  0.11284265395E+03  0.11285158816E+03  0.14200000000E+01 0.  1.
         -4   -1    0    0    0  501 -0.00000000000E+00 -0.00000000000E+00 -0.30318272908E+00  0.14520054295E+01  0.14200000000E+01 0. -1.
       1023    2    1    2    0    0  0.00000000000E+00  0.00000000000E+00  0.11253947122E+03  0.11430359359E+03  0.20004472626E+02 0.  0.
        -11    1    3    3    0    0 -0.71171422161E+01 -0.70277335043E+01  0.56523953856E+02  0.57402091524E+02  0.51100000000E-03 0.  1.
         11    1    3    3    0    0  0.71171422161E+01  0.70277335043E+01  0.56015517364E+02  0.56901502066E+02  0.51100000000E-03 0. -1.
<mgrwt>
<rscale>  0 0.20004473E+02</rscale>
<asrwt>0</asrwt>
<pdfrwt beam="1">  1        4 0.17449456E-01 0.20004473E+02</pdfrwt>
<pdfrwt beam="2">  1       -4 0.13570180E-03 0.20004473E+02</pdfrwt>
<totfact> 0.94075172E+05</totfact>
</mgrwt>
</event>
<event>
 4    1  0.1154861E-006  0.2004852E+02  0.7818608E-02  0.1744365E+00
         -4   -1    0    0    0  501 -0.00000000000E+00  0.00000000000E+00  0.63542079948E+00  0.15556862127E+01  0.14200000000E+01 0. -1.
          4   -1    0    0  501    0  0.00000000000E+00 -0.00000000000E+00 -0.90793335331E+02  0.90804438992E+02  0.14200000000E+01 0.  1.
        -11    1    1    2    0    0 -0.29129437813E+01 -0.95708751731E+01 -0.42169349525E+02  0.43339830787E+02  0.51100000000E-03 0.  1.
         11    1    1    2    0    0  0.29129437813E+01  0.95708751731E+01 -0.47988565007E+02  0.49020294417E+02  0.51100000000E-03 0. -1.
<mgrwt>
<rscale>  0 0.20048521E+02</rscale>
<asrwt>0</asrwt>
<pdfrwt beam="2">  1        4 0.14039843E-01 0.20048521E+02</pdfrwt>
<pdfrwt beam="1">  1       -4 0.16940089E-03 0.20048521E+02</pdfrwt>
<totfact> 0.99759838E+05</totfact>
</mgrwt>
</event>
<event>
 5    1  0.1179861E-006  0.2000131E+02  0.7818608E-02  0.1745302E+00
         -4   -1    0    0    0  501 -0.00000000000E+00  0.00000000000E+00  0.26646116877E+02  0.26683926709E+02  0.14200000000E+01 0.  1.
          4   -1    0    0  501    0  0.00000000000E+00 -0.00000000000E+00 -0.35770454057E+01  0.38485911493E+01  0.14200000000E+01 0. -1.
       1023    2    1    2    0    0  0.00000000000E+00  0.00000000000E+00  0.23069071471E+02  0.30532517858E+02  0.20001314662E+02 0.  0.
        -11    1    3    3    0    0 -0.60189054526E+01 -0.79858388838E+01  0.11703844357E+02  0.15394181320E+02  0.51100000000E-03 0.  1.
         11    1    3    3    0    0  0.60189054526E+01  0.79858388838E+01  0.11365227114E+02  0.15138336538E+02  0.51100000000E-03 0. -1.
<mgrwt>
<rscale>  0 0.20001315E+02</rscale>
<asrwt>0</asrwt>
<pdfrwt beam="2">  1        4 0.57411126E-03 0.20001315E+02</pdfrwt>
<pdfrwt beam="1">  1       -4 0.41231992E-02 0.20001315E+02</pdfrwt>
<totfact> 0.12426360E+06</totfact>
</mgrwt>
</event>
<event>
 5    1  0.1154861E-006  0.2000039E+02  0.7818608E-02  0.1745320E+00
          4   -1    0    0  501    0  0.00000000000E+00  0.00000000000E+00  0.50140200661E+02  0.50160304249E+02  0.14200000000E+01 0.  1.
         -4   -1    0    0    0  501 -0.00000000000E+00 -0.00000000000E+00 -0.17185511692E+01  0.22293088887E+01  0.14200000000E+01 0. -1.
       1023    2    1    2    0    0  0.00000000000E+00  0.00000000000E+00  0.48421649492E+02  0.52389613138E+02  0.20000385626E+02 0.  0.
        -11    1    3    3    0    0  0.79533802382E+01 -0.60619796657E+01  0.24207777199E+02  0.26191989842E+02  0.51100000000E-03 0. -1.
         11    1    3    3    0    0 -0.79533802382E+01  0.60619796657E+01  0.24213872293E+02  0.26197623296E+02  0.51100000000E-03 0.  1.
<mgrwt>
<rscale>  0 0.20000386E+02</rscale>
<asrwt>0</asrwt>
<pdfrwt beam="1">  1        4 0.77547120E-02 0.20000386E+02</pdfrwt>
<pdfrwt beam="2">  1       -4 0.30522799E-03 0.20000386E+02</pdfrwt>
<totfact> 0.11420433E+06</totfact>
</mgrwt>
</event>
<event>
 5    1  0.1154861E-006  0.2000063E+02  0.7818608E-02  0.1745316E+00
          4   -1    0    0  501    0  0.00000000000E+00  0.00000000000E+00  0.17726734957E+02  0.17783518556E+02  0.14200000000E+01 0.  1.
         -4   -1    0    0    0  501 -0.00000000000E+00 -0.00000000000E+00 -0.54851918170E+01  0.56660152903E+01  0.14200000000E+01 0. -1.
       1023    2    1    2    0    0  0.00000000000E+00  0.00000000000E+00  0.12241543140E+02  0.23449533847E+02  0.20000631469E+02 0.  0.
        -11    1    3    3    0    0  0.77899510590E+01  0.62707409766E+01  0.61536131636E+01  0.11741911477E+02  0.51100000000E-03 0. -1.
         11    1    3    3    0    0 -0.77899510590E+01 -0.62707409766E+01  0.60879299767E+01  0.11707622370E+02  0.51100000000E-03 0.  1.
<mgrwt>
<rscale>  0 0.20000631E+02</rscale>
<asrwt>0</asrwt>
<pdfrwt beam="1">  1        4 0.27454675E-02 0.20000631E+02</pdfrwt>
<pdfrwt beam="2">  1       -4 0.86215313E-03 0.20000631E+02</pdfrwt>
<totfact> 0.12812110E+06</totfact>
</mgrwt>
</event>
<event>
 5    1  0.1154861E-006  0.2000304E+02  0.7818608E-02  0.1745268E+00
         -4   -1    0    0    0  501 -0.00000000000E+00  0.00000000000E+00  0.41844563934E+01  0.44188318941E+01  0.14200000000E+01 0.  1.
          4   -1    0    0  501    0  0.00000000000E+00 -0.00000000000E+00 -0.22997126077E+02  0.23040924630E+02  0.14200000000E+01 0. -1.
       1023    2    1    2    0    0  0.00000000000E+00  0.00000000000E+00 -0.18812669684E+02  0.27459756524E+02  0.20003041962E+02 0.  0.
        -11    1    3    3    0    0 -0.94181307765E+01 -0.33657619644E+01 -0.93655943047E+01  0.13701966934E+02  0.51100000000E-03 0.  1.
         11    1    3    3    0    0  0.94181307765E+01  0.33657619644E+01 -0.94470753793E+01  0.13757789590E+02  0.51100000000E-03 0. -1.
<mgrwt>
<rscale>  0 0.20003042E+02</rscale>
<asrwt>0</asrwt>
<pdfrwt beam="2">  1        4 0.35594173E-02 0.20003042E+02</pdfrwt>
<pdfrwt beam="1">  1       -4 0.66516054E-03 0.20003042E+02</pdfrwt>
<totfact> 0.12586712E+06</totfact>
</mgrwt>
</event>
<event>
 5    1  0.1154861E-006  0.2000949E+02  0.7818608E-02  0.1745139E+00
          4   -1    0    0  501    0  0.00000000000E+00  0.00000000000E+00  0.56762653128E+00  0.15292481417E+01  0.14200000000E+01 0. -1.
         -4   -1    0    0    0  501 -0.00000000000E+00 -0.00000000000E+00 -0.94501148652E+02  0.94511816703E+02  0.14200000000E+01 0.  1.
       1023    2    1    2    0    0  0.00000000000E+00  0.00000000000E+00 -0.93933522120E+02  0.96041064845E+02  0.20009486714E+02 0.  0.
        -11    1    3    3    0    0  0.85788584890E+01  0.51454951488E+01 -0.47677971927E+02  0.48716136347E+02  0.51100000000E-03 0.  1.
         11    1    3    3    0    0 -0.85788584890E+01 -0.51454951488E+01 -0.46255550194E+02  0.47324928498E+02  0.51100000000E-03 0. -1.
<mgrwt>
<rscale>  0 0.20009487E+02</rscale>
<asrwt>0</asrwt>
<pdfrwt beam="1">  1        4 0.16211875E-03 0.20009487E+02</pdfrwt>
<pdfrwt beam="2">  1       -4 0.14613423E-01 0.20009487E+02</pdfrwt>
<totfact> 0.99060799E+05</totfact>
</mgrwt>
</event>
<event>
 5    1  0.1199613E-006  0.2000086E+02  0.7818608E-02  0.1745311E+00
          4   -1    0    0  501    0  0.00000000000E+00  0.00000000000E+00  0.22879616434E+02  0.22923639505E+02  0.14200000000E+01 0. -1.
         -4   -1    0    0    0  501 -0.00000000000E+00 -0.00000000000E+00 -0.42061279040E+01  0.44393594070E+01  0.14200000000E+01 0.  1.
       1023    2    1    2    0    0  0.00000000000E+00  0.00000000000E+00  0.18673488530E+02  0.27362998912E+02  0.20000863371E+02 0.  0.
        -11    1    3    3    0    0  0.32438435482E+01  0.94594767178E+01  0.94276260514E+01  0.13743520436E+02  0.51100000000E-03 0. -1.
         11    1    3    3    0    0 -0.32438435482E+01 -0.94594767178E+01  0.92458624787E+01  0.13619478477E+02  0.51100000000E-03 0.  1.
<mgrwt>
<rscale>  0 0.20000863E+02</rscale>
<asrwt>0</asrwt>
<pdfrwt beam="1">  1        4 0.35412683E-02 0.20000863E+02</pdfrwt>
<pdfrwt beam="2">  1       -4 0.66842387E-03 0.20000863E+02</pdfrwt>
<totfact> 0.12594726E+06</totfact>
</mgrwt>
</event>
<event>
 5    1  0.1154861E-006  0.2000070E+02  0.7818608E-02  0.1745314E+00
          4   -1    0    0  501    0  0.00000000000E+00  0.00000000000E+00  0.19791452139E+01  0.24358603773E+01  0.14200000000E+01 0.  1.
         -4   -1    0    0    0  501 -0.00000000000E+00 -0.00000000000E+00 -0.44834097530E+02  0.44856579242E+02  0.14200000000E+01 0.  1.
       1023    2    1    2    0    0  0.00000000000E+00  0.00000000000E+00 -0.42854952316E+02  0.47292439620E+02  0.20000697667E+02 0.  0.
        -11    1    3    3    0    0 -0.99083488798E+01 -0.13532645693E+01 -0.21388335271E+02  0.23610751543E+02  0.51100000000E-03 0. -1.
         11    1    3    3    0    0  0.99083488798E+01  0.13532645693E+01 -0.21466617046E+02  0.23681688077E+02  0.51100000000E-03 0.  1.
<mgrwt>
<rscale>  0 0.20000698E+02</rscale>
<asrwt>0</asrwt>
<pdfrwt beam="1">  1        4 0.34134521E-03 0.20000698E+02</pdfrwt>
<pdfrwt beam="2">  1       -4 0.69344141E-02 0.20000698E+02</pdfrwt>
<totfact> 0.11634798E+06</totfact>
</mgrwt>
</event>
<event>
 5    1  0.1159841E-006  0.2000165E+02  0.7818608E-02  0.1745295E+00
          4   -1    0    0  501    0  0.00000000000E+00  0.00000000000E+00  0.64443756477E+01  0.65989679109E+01  0.14200000000E+01 0. -1.
         -4   -1    0    0    0  501 -0.00000000000E+00 -0.00000000000E+00 -0.15147828840E+02  0.15214240651E+02  0.14200000000E+01 0.  1.
       1023    2    1    2    0    0  0.00000000000E+00  0.00000000000E+00 -0.87034531927E+01  0.21813208562E+02  0.20001649189E+02 0.  0.
        -11    1    3    3    0    0 -0.93183467144E+01  0.36300322070E+01 -0.42555768985E+01  0.10868240626E+02  0.51100000000E-03 0. -1.
         11    1    3    3    0    0  0.93183467144E+01 -0.36300322070E+01 -0.44478762942E+01  0.10944967935E+02  0.51100000000E-03 0.  1.
<mgrwt>
<rscale>  0 0.20001649E+02</rscale>
<asrwt>0</asrwt>
<pdfrwt beam="1">  1        4 0.10084427E-02 0.20001649E+02</pdfrwt>
<pdfrwt beam="2">  1       -4 0.23474355E-02 0.20001649E+02</pdfrwt>
<totfact> 0.12904913E+06</totfact>
</mgrwt>
</event>
<event>
 5    1  0.1154861E-006  0.2000345E+02  0.7818608E-02  0.1745259E+00
         -4   -1    0    0    0  501 -0.00000000000E+00  0.00000000000E+00  0.19731603140E+02  0.19782632850E+02  0.14200000000E+01 0.  1.
          4   -1    0    0  501    0  0.00000000000E+00 -0.00000000000E+00 -0.49114767456E+01  0.51126317902E+01  0.14200000000E+01 0. -1.
       1023    2    1    2    0    0  0.00000000000E+00  0.00000000000E+00  0.14820126395E+02  0.24895264640E+02  0.20003451081E+02 0.  0.
        -11    1    3    3    0    0 -0.37835206028E+01 -0.92581349432E+01  0.73103225056E+01  0.12388256785E+02  0.51100000000E-03 0. -1.
         11    1    3    3    0    0  0.37835206028E+01  0.92581349432E+01  0.75098038892E+01  0.12507007855E+02  0.51100000000E-03 0.  1.
<mgrwt>
<rscale>  0 0.20003451E+02</rscale>
<asrwt>0</asrwt>
<pdfrwt beam="2">  1        4 0.77501064E-03 0.20003451E+02</pdfrwt>
<pdfrwt beam="1">  1       -4 0.30550300E-02 0.20003451E+02</pdfrwt>
<totfact> 0.12726973E+06</totfact>
</mgrwt>
</event>
<event>
 5    1  0.1154861E-006  0.2000101E+02  0.7818608E-02  0.1745308E+00
          4   -1    0    0  501    0  0.00000000000E+00  0.00000000000E+00  0.95515037845E+02  0.95525592668E+02  0.14200000000E+01 0. -1.
         -4   -1    0    0    0  501 -0.00000000000E+00 -0.00000000000E+00 -0.55003657170E+00  0.15228066950E+01  0.14200000000E+01 0.  1.
       1023    2    1    2    0    0  0.00000000000E+00  0.00000000000E+00  0.94965001273E+02  0.97048399363E+02  0.20001008775E+02 0.  0.
        -11    1    3    3    0    0  0.99996247352E+01 -0.13228148236E+00  0.47529671861E+02  0.48570358252E+02  0.51100000000E-03 0. -1.
         11    1    3    3    0    0 -0.99996247352E+01  0.13228148236E+00  0.47435329412E+02  0.48478041111E+02  0.51100000000E-03 0.  1.
<mgrwt>
<rscale>  0 0.20001009E+02</rscale>
<asrwt>0</asrwt>
<pdfrwt beam="1">  1        4 0.14770261E-01 0.20001009E+02</pdfrwt>
<pdfrwt beam="2">  1       -4 0.16026140E-03 0.20001009E+02</pdfrwt>
<totfact> 0.98851208E+05</totfact>
</mgrwt>
</event>
<event>
 5    1  0.1154861E-006  0.2000033E+02  0.7818608E-02  0.1745321E+00
         -4   -1    0    0    0  501 -0.00000000000E+00  0.00000000000E+00  0.25764978702E+02  0.25804079668E+02  0.14200000000E+01 0. -1.
          4   -1    0    0  501    0  0.00000000000E+00 -0.00000000000E+00 -0.37079202908E+01  0.39705255172E+01  0.14200000000E+01 0.  1.
       1023    2    1    2    0    0  0.00000000000E+00  0.00000000000E+00  0.22057058411E+02  0.29774605185E+02  0.20000332202E+02 0.  0.
        -11    1    3    3    0    0 -0.74412824871E+01 -0.66805172851E+01  0.11082729853E+02  0.14927454489E+02  0.51100000000E-03 0. -1.
         11    1    3    3    0    0  0.74412824871E+01  0.66805172851E+01  0.10974328558E+02  0.14847150696E+02  0.51100000000E-03 0.  1.
<mgrwt>
<rscale>  0 0.20000332E+02</rscale>
<asrwt>0</asrwt>
<pdfrwt beam="2">  1        4 0.59365747E-03 0.20000332E+02</pdfrwt>
<pdfrwt beam="1">  1       -4 0.39870509E-02 0.20000332E+02</pdfrwt>
<totfact> 0.12467109E+06</totfact>
</mgrwt>
</event>
<event>
 5    1  0.1154861E-006  0.2000028E+02  0.7818608E-02  0.1745323E+00
          4   -1    0    0  501    0  0.00000000000E+00  0.00000000000E+00  0.56246860191E+02  0.56264781892E+02  0.14200000000E+01 0.  1.
         -4   -1    0    0    0  501 -0.00000000000E+00 -0.00000000000E+00 -0.14732021092E+01  0.20461486883E+01  0.14200000000E+01 0. -1.
       1023    2    1    2    0    0  0.00000000000E+00  0.00000000000E+00  0.54773658082E+02  0.58310930580E+02  0.20000275135E+02 0.  0.
        -11    1    3    3    0    0  0.65388912870E+01 -0.75660809729E+01  0.27411318068E+02  0.29178468757E+02  0.51100000000E-03 0.  1.
         11    1    3    3    0    0 -0.65388912870E+01  0.75660809729E+01  0.27362340014E+02  0.29132461823E+02  0.51100000000E-03 0. -1.
<mgrwt>
<rscale>  0 0.20000275E+02</rscale>
<asrwt>0</asrwt>
<pdfrwt beam="1">  1        4 0.86988147E-02 0.20000275E+02</pdfrwt>
<pdfrwt beam="2">  1       -4 0.27209788E-03 0.20000275E+02</pdfrwt>
<totfact> 0.11183810E+06</totfact>
</mgrwt>
</event>
<event>
 5    1  0.1154861E-006  0.2000021E+02  0.7818608E-02  0.1745324E+00
          4   -1    0    0  501    0  0.00000000000E+00  0.00000000000E+00  0.17321393944E+02  0.17379501954E+02  0.14200000000E+01 0. -1.
         -4   -1    0    0    0  501 -0.00000000000E+00 -0.00000000000E+00 -0.56170489693E+01  0.57937586353E+01  0.14200000000E+01 0.  1.
       1023    2    1    2    0    0  0.00000000000E+00  0.00000000000E+00  0.11704344974E+02  0.23173260589E+02  0.20000207875E+02 0.  0.
        -11    1    3    3    0    0 -0.13472366511E+01 -0.99088433527E+01  0.59020795124E+01  0.11611837323E+02  0.51100000000E-03 0.  1.
         11    1    3    3    0    0  0.13472366511E+01  0.99088433527E+01  0.58022654620E+01  0.11561423266E+02  0.51100000000E-03 0. -1.
<mgrwt>
<rscale>  0 0.20000208E+02</rscale>
<asrwt>0</asrwt>
<pdfrwt beam="1">  1        4 0.26828927E-02 0.20000208E+02</pdfrwt>
<pdfrwt beam="2">  1       -4 0.88222429E-03 0.20000208E+02</pdfrwt>
<totfact> 0.12828402E+06</totfact>
</mgrwt>
</event>
<event>
 5    1  0.1218841E-006  0.2000124E+02  0.7818608E-02  0.1745304E+00
          4   -1    0    0  501    0  0.00000000000E+00  0.00000000000E+00  0.18769540392E+02  0.18823178438E+02  0.14200000000E+01 0. -1.
         -4   -1    0    0    0  501 -0.00000000000E+00 -0.00000000000E+00 -0.51713537888E+01  0.53627698076E+01  0.14200000000E+01 0.  1.
       1023    2    1    2    0    0  0.00000000000E+00  0.00000000000E+00  0.13598186603E+02  0.24185948246E+02  0.20001235303E+02 0.  0.
        -11    1    3    3    0    0 -0.55231399767E+01 -0.83370243227E+01  0.67554372630E+01  0.12068429170E+02  0.51100000000E-03 0. -1.
         11    1    3    3    0    0  0.55231399767E+01  0.83370243227E+01  0.68427493399E+01  0.12117519076E+02  0.51100000000E-03 0.  1.
<mgrwt>
<rscale>  0 0.20001235E+02</rscale>
<asrwt>0</asrwt>
<pdfrwt beam="1">  1        4 0.29064719E-02 0.20001235E+02</pdfrwt>
<pdfrwt beam="2">  1       -4 0.81444321E-03 0.20001235E+02</pdfrwt>
<totfact> 0.12769676E+06</totfact>
</mgrwt>
</event>
<event>
 5    1  0.1154861E-006  0.2000293E+02  0.7818608E-02  0.1745270E+00
         -4   -1    0    0    0  501 -0.00000000000E+00  0.00000000000E+00  0.10238983030E+01  0.17506478043E+01  0.14200000000E+01 0. -1.
          4   -1    0    0  501    0  0.00000000000E+00 -0.00000000000E+00 -0.71369345711E+02  0.71383470826E+02  0.14200000000E+01 0.  1.
       1023    2    1    2    0    0  0.00000000000E+00  0.00000000000E+00 -0.70345447408E+02  0.73134118631E+02  0.20002933206E+02 0.  0.
        -11    1    3    3    0    0  0.99765933350E+01 -0.68783259762E+00 -0.34608609787E+02  0.36024455581E+02  0.51100000000E-03 0. -1.
         11    1    3    3    0    0 -0.99765933350E+01  0.68783259762E+00 -0.35736837621E+02  0.37109663050E+02  0.51100000000E-03 0.  1.
<mgrwt>
<rscale>  0 0.20002933E+02</rscale>
<asrwt>0</asrwt>
<pdfrwt beam="2">  1        4 0.11036887E-01 0.20002933E+02</pdfrwt>
<pdfrwt beam="1">  1       -4 0.21451323E-03 0.20002933E+02</pdfrwt>
<totfact> 0.10638395E+06</totfact>
</mgrwt>
</event>
<event>
 5    1  0.1154861E-006  0.2000232E+02  0.7818608E-02  0.1745282E+00
          4   -1    0    0  501    0  0.00000000000E+00  0.00000000000E+00  0.40217359697E+02  0.40242420665E+02  0.14200000000E+01 0. -1.
         -4   -1    0    0    0  501 -0.00000000000E+00 -0.00000000000E+00 -0.22563431582E+01  0.26659865805E+01  0.14200000000E+01 0.  1.
       1023    2    1    2    0    0  0.00000000000E+00  0.00000000000E+00  0.37961016539E+02  0.42908407246E+02  0.20002315759E+02 0.  0.
        -11    1    3    3    0    0  0.68042660383E+01 -0.73296526673E+01  0.18902743988E+02  0.21385405657E+02  0.51100000000E-03 0.  1.
         11    1    3    3    0    0 -0.68042660383E+01  0.73296526673E+01  0.19058272550E+02  0.21523001589E+02  0.51100000000E-03 0. -1.
<mgrwt>
<rscale>  0 0.20002316E+02</rscale>
<asrwt>0</asrwt>
<pdfrwt beam="1">  1        4 0.62207243E-02 0.20002316E+02</pdfrwt>
<pdfrwt beam="2">  1       -4 0.38056855E-03 0.20002316E+02</pdfrwt>
<totfact> 0.11826536E+06</totfact>
</mgrwt>
</event>
<event>
 5    1  0.1154861E-006  0.2000040E+02  0.7818608E-02  0.1745320E+00
         -4   -1    0    0    0  501 -0.00000000000E+00  0.00000000000E+00  0.18341384866E+02  0.18396271329E+02  0.14200000000E+01 0. -1.
          4   -1    0    0  501    0  0.00000000000E+00 -0.00000000000E+00 -0.52956558676E+01  0.54827339046E+01  0.14200000000E+01 0.  1.
       1023    2    1    2    0    0  0.00000000000E+00  0.00000000000E+00  0.13045728999E+02  0.23879005234E+02  0.20000396142E+02 0.  0.
        -11    1    3    3    0    0 -0.28547314227E+00 -0.99961189012E+01  0.65126497989E+01  0.11933922057E+02  0.51100000000E-03 0.  1.
         11    1    3    3    0    0  0.28547314227E+00  0.99961189012E+01  0.65330791997E+01  0.11945083176E+02  0.51100000000E-03 0. -1.
<mgrwt>
<rscale>  0 0.20000396E+02</rscale>
<asrwt>0</asrwt>
<pdfrwt beam="2">  1        4 0.83332894E-03 0.20000396E+02</pdfrwt>
<pdfrwt beam="1">  1       -4 0.28403642E-02 0.20000396E+02</pdfrwt>
<totfact> 0.12788075E+06</totfact>
</mgrwt>
</event>
<event>
 5    1  0.1154861E-006  0.2000747E+02  0.7818608E-02  0.1745180E+00
         -4   -1    0    0    0  501 -0.00000000000E+00  0.00000000000E+00  0.10424647833E+02  0.10520916426E+02  0.14200000000E+01 0. -1.
          4   -1    0    0  501    0  0.00000000000E+00 -0.00000000000E+00 -0.94058921619E+01  0.95124764053E+01  0.14200000000E+01 0.  1.
       1023    2    1    2    0    0  0.00000000000E+00  0.00000000000E+00  0.10187556714E+01  0.20033392831E+02  0.20007472735E+02 0.  0.
        -11    1    3    3    0    0 -0.17446332143E+00 -0.10002182408E+02  0.53491915997E+00  0.10017995266E+02  0.51100000000E-03 0. -1.
         11    1    3    3    0    0  0.17446332143E+00  0.10002182408E+02  0.48383651140E+00  0.10015397566E+02  0.51100000000E-03 0.  1.
<mgrwt>
<rscale>  0 0.20007473E+02</rscale>
<asrwt>0</asrwt>
<pdfrwt beam="2">  1        4 0.14626644E-02 0.20007473E+02</pdfrwt>
<pdfrwt beam="1">  1       -4 0.16193960E-02 0.20007473E+02</pdfrwt>
<totfact> 0.13002140E+06</totfact>
</mgrwt>
</event>
<event>
 5    1  0.1154861E-006  0.2000070E+02  0.7818608E-02  0.1745314E+00
         -4   -1    0    0    0  501 -0.00000000000E+00  0.00000000000E+00  0.17341847672E+02  0.17399887376E+02  0.14200000000E+01 0. -1.
          4   -1    0    0  501    0  0.00000000000E+00 -0.00000000000E+00 -0.56105272354E+01  0.57874360350E+01  0.14200000000E+01 0.  1.
       1023    2    1    2    0    0  0.00000000000E+00  0.00000000000E+00  0.11731320437E+02  0.23187323411E+02  0.20000702182E+02 0.  0.
        -11    1    3    3    0    0 -0.88398388801E+01  0.46753824234E+01  0.59482042479E+01  0.11635423768E+02  0.51100000000E-03 0. -1.
         11    1    3    3    0    0  0.88398388801E+01 -0.46753824234E+01  0.57831161887E+01  0.11551899642E+02  0.51100000000E-03 0.  1.
<mgrwt>
<rscale>  0 0.20000702E+02</rscale>
<asrwt>0</asrwt>
<pdfrwt beam="2">  1        4 0.88123102E-03 0.20000702E+02</pdfrwt>
<pdfrwt beam="1">  1       -4 0.26860495E-02 0.20000702E+02</pdfrwt>
<totfact> 0.12826953E+06</totfact>
</mgrwt>
</event>
<event>
 5    1  0.1154861E-006  0.2000022E+02  0.7818608E-02  0.1745324E+00
          4   -1    0    0  501    0  0.00000000000E+00  0.00000000000E+00  0.15566934174E+02  0.15631565487E+02  0.14200000000E+01 0. -1.
         -4   -1    0    0    0  501 -0.00000000000E+00 -0.00000000000E+00 -0.62664704896E+01  0.64253445353E+01  0.14200000000E+01 0.  1.
       1023    2    1    2    0    0  0.00000000000E+00  0.00000000000E+00  0.93004636840E+01  0.22056910022E+02  0.20000216373E+02 0.  0.
        -11    1    3    3    0    0  0.93594532071E+01  0.35217373786E+01  0.46643973840E+01  0.11034428019E+02  0.51100000000E-03 0. -1.
         11    1    3    3    0    0 -0.93594532071E+01 -0.35217373786E+01  0.46360663000E+01  0.11022482003E+02  0.51100000000E-03 0.  1.
<mgrwt>
<rscale>  0 0.20000216E+02</rscale>
<asrwt>0</asrwt>
<pdfrwt beam="1">  1        4 0.24121056E-02 0.20000216E+02</pdfrwt>
<pdfrwt beam="2">  1       -4 0.98126513E-03 0.20000216E+02</pdfrwt>
<totfact> 0.12892637E+06</totfact>
</mgrwt>
</event>
<event>
 5    1  0.1154861E-006  0.2000157E+02  0.7818608E-02  0.1745297E+00
          4   -1    0    0  501    0  0.00000000000E+00  0.00000000000E+00  0.11971394635E+02  0.12055317893E+02  0.14200000000E+01 0.  1.
         -4   -1    0    0    0  501 -0.00000000000E+00 -0.00000000000E+00 -0.81800701894E+01  0.83024061755E+01  0.14200000000E+01 0. -1.
       1023    2    1    2    0    0  0.00000000000E+00  0.00000000000E+00  0.37913244458E+01  0.20357724069E+02  0.20001569644E+02 0.  0.
        -11    1    3    3    0    0  0.71210983827E+01  0.70216854707E+01  0.18551058981E+01  0.10171309020E+02  0.51100000000E-03 0. -1.
         11    1    3    3    0    0 -0.71210983827E+01 -0.70216854707E+01  0.19362185477E+01  0.10186415049E+02  0.51100000000E-03 0.  1.
<mgrwt>
<rscale>  0 0.20001570E+02</rscale>
<asrwt>0</asrwt>
<pdfrwt beam="1">  1        4 0.18576191E-02 0.20001570E+02</pdfrwt>
<pdfrwt beam="2">  1       -4 0.12743384E-02 0.20001570E+02</pdfrwt>
<totfact> 0.12990677E+06</totfact>
</mgrwt>
</event>
<event>
 5    1  0.1154861E-006  0.2000004E+02  0.7818608E-02  0.1745327E+00
         -4   -1    0    0    0  501 -0.00000000000E+00  0.00000000000E+00  0.11942720608E+02  0.12026843956E+02  0.14200000000E+01 0. -1.
          4   -1    0    0  501    0  0.00000000000E+00 -0.00000000000E+00 -0.81985821134E+01  0.83206459287E+01  0.14200000000E+01 0.  1.
       1023    2    1    2    0    0  0.00000000000E+00  0.00000000000E+00  0.37441384950E+01  0.20347489884E+02  0.20000044288E+02 0.  0.
        -11    1    3    3    0    0 -0.31937931216E+01 -0.94762927282E+01  0.18699732043E+01  0.10173359250E+02  0.51100000000E-03 0.  1.
         11    1    3    3    0    0  0.31937931216E+01  0.94762927282E+01  0.18741652907E+01  0.10174130635E+02  0.51100000000E-03 0. -1.
<mgrwt>
<rscale>  0 0.20000044E+02</rscale>
<asrwt>0</asrwt>
<pdfrwt beam="2">  1        4 0.12771809E-02 0.20000044E+02</pdfrwt>
<pdfrwt beam="1">  1       -4 0.18532022E-02 0.20000044E+02</pdfrwt>
<totfact> 0.12993307E+06</totfact>
</mgrwt>
</event>
<event>
 5    1  0.1154861E-006  0.2000025E+02  0.7818608E-02  0.1745323E+00
         -4   -1    0    0    0  501 -0.00000000000E+00  0.00000000000E+00  0.56882245433E+00  0.15296924477E+01  0.14200000000E+01 0. -1.
          4   -1    0    0  501    0  0.00000000000E+00 -0.00000000000E+00 -0.94339236359E+02  0.94349922717E+02  0.14200000000E+01 0.  1.
       1023    2    1    2    0    0  0.00000000000E+00  0.00000000000E+00 -0.93770413904E+02  0.95879615165E+02  0.20000252008E+02 0.  0.
        -11    1    3    3    0    0  0.35532287324E+01 -0.93475651993E+01 -0.46834870546E+02  0.47890578498E+02  0.51100000000E-03 0. -1.
         11    1    3    3    0    0 -0.35532287324E+01  0.93475651993E+01 -0.46935543358E+02  0.47989036666E+02  0.51100000000E-03 0.  1.
<mgrwt>
<rscale>  0 0.20000252E+02</rscale>
<asrwt>0</asrwt>
<pdfrwt beam="2">  1        4 0.14588457E-01 0.20000252E+02</pdfrwt>
<pdfrwt beam="1">  1       -4 0.16224633E-03 0.20000252E+02</pdfrwt>
<totfact> 0.99199350E+05</totfact>
</mgrwt>
</event>
<event>
 5    1  0.1154861E-006  0.2000140E+02  0.7818608E-02  0.1745300E+00
          4   -1    0    0  501    0  0.00000000000E+00  0.00000000000E+00  0.11785287569E+01  0.18453536330E+01  0.14200000000E+01 0.  1.
         -4   -1    0    0    0  501 -0.00000000000E+00 -0.00000000000E+00 -0.65473151771E+02  0.65488548639E+02  0.14200000000E+01 0. -1.
       1023    2    1    2    0    0  0.00000000000E+00  0.00000000000E+00 -0.64294623015E+02  0.67333902272E+02  0.20001396117E+02 0.  0.
        -11    1    3    3    0    0 -0.29602076987E+01 -0.95523401745E+01 -0.32358326219E+02  0.33868441187E+02  0.51100000000E-03 0.  1.
         11    1    3    3    0    0  0.29602076987E+01  0.95523401745E+01 -0.31936296795E+02  0.33465461086E+02  0.51100000000E-03 0. -1.
<mgrwt>
<rscale>  0 0.20001396E+02</rscale>
<asrwt>0</asrwt>
<pdfrwt beam="1">  1        4 0.23379076E-03 0.20001396E+02</pdfrwt>
<pdfrwt beam="2">  1       -4 0.10125269E-01 0.20001396E+02</pdfrwt>
<totfact> 0.10844426E+06</totfact>
</mgrwt>
</event>
<event>
 5    1  0.1154861E-006  0.2000020E+02  0.7818608E-02  0.1745324E+00
         -4   -1    0    0    0  501 -0.00000000000E+00  0.00000000000E+00  0.21329435216E+02  0.21376650969E+02  0.14200000000E+01 0.  1.
          4   -1    0    0  501    0  0.00000000000E+00 -0.00000000000E+00 -0.45271938745E+01  0.47446690483E+01  0.14200000000E+01 0. -1.
       1023    2    1    2    0    0  0.00000000000E+00  0.00000000000E+00  0.16802241342E+02  0.26121320017E+02  0.20000201132E+02 0.  0.
        -11    1    3    3    0    0 -0.90373054784E+01  0.42812518476E+01  0.83987200073E+01  0.13059115809E+02  0.51100000000E-03 0.  1.
         11    1    3    3    0    0  0.90373054784E+01 -0.42812518476E+01  0.84035213343E+01  0.13062204208E+02  0.51100000000E-03 0. -1.
<mgrwt>
<rscale>  0 0.20000201E+02</rscale>
<asrwt>0</asrwt>
<pdfrwt beam="2">  1        4 0.71685220E-03 0.20000201E+02</pdfrwt>
<pdfrwt beam="1">  1       -4 0.33018124E-02 0.20000201E+02</pdfrwt>
<totfact> 0.12663236E+06</totfact>
</mgrwt>
</event>
<event>
 4    1  0.1154861E-006  0.2002088E+02  0.7818608E-02  0.1744913E+00
          4   -1    0    0  501    0  0.00000000000E+00  0.00000000000E+00  0.69479848354E+02  0.69494357522E+02  0.14200000000E+01 0.  1.
         -4   -1    0    0    0  501 -0.00000000000E+00 -0.00000000000E+00 -0.10744605336E+01  0.17806924042E+01  0.14200000000E+01 0. -1.
        -11    1    1    2    0    0 -0.61483182844E+01 -0.78943154397E+01  0.35252032225E+02  0.36644615023E+02  0.51100000000E-03 0.  1.
         11    1    1    2    0    0  0.61483182844E+01  0.78943154397E+01  0.33153355596E+02  0.34630434902E+02  0.51100000000E-03 0. -1.
<mgrwt>
<rscale>  0 0.20020881E+02</rscale>
<asrwt>0</asrwt>
<pdfrwt beam="1">  1        4 0.10744649E-01 0.20020881E+02</pdfrwt>
<pdfrwt beam="2">  1       -4 0.22074323E-03 0.20020881E+02</pdfrwt>
<totfact> 0.10683624E+06</totfact>
</mgrwt>
</event>
<event>
 5    1  0.1154861E-006  0.2000037E+02  0.7818608E-02  0.1745321E+00
          4   -1    0    0  501    0  0.00000000000E+00  0.00000000000E+00  0.69252847614E+01  0.70693683613E+01  0.14200000000E+01 0. -1.
         -4   -1    0    0    0  501 -0.00000000000E+00 -0.00000000000E+00 -0.14111621743E+02  0.14182886455E+02  0.14200000000E+01 0.  1.
       1023    2    1    2    0    0  0.00000000000E+00  0.00000000000E+00 -0.71863369811E+01  0.21252254817E+02  0.20000372386E+02 0.  0.
        -11    1    3    3    0    0 -0.59855703330E+01  0.80109695187E+01 -0.36274161942E+01  0.10637708087E+02  0.51100000000E-03 0.  1.
         11    1    3    3    0    0  0.59855703330E+01 -0.80109695187E+01 -0.35589207868E+01  0.10614546729E+02  0.51100000000E-03 0. -1.
<mgrwt>
<rscale>  0 0.20000372E+02</rscale>
<asrwt>0</asrwt>
<pdfrwt beam="1">  1        4 0.10819937E-02 0.20000372E+02</pdfrwt>
<pdfrwt beam="2">  1       -4 0.21875840E-02 0.20000372E+02</pdfrwt>
<totfact> 0.12939402E+06</totfact>
</mgrwt>
</event>
<event>
 5    1  0.1204713E-006  0.2000250E+02  0.7818608E-02  0.1745278E+00
         -4   -1    0    0    0  501 -0.00000000000E+00  0.00000000000E+00  0.11487325810E+02  0.11574759361E+02  0.14200000000E+01 0. -1.
          4   -1    0    0  501    0  0.00000000000E+00 -0.00000000000E+00 -0.85280517980E+01  0.86454651390E+01  0.14200000000E+01 0.  1.
       1023    2    1    2    0    0  0.00000000000E+00  0.00000000000E+00  0.29592740124E+01  0.20220224500E+02  0.20002504247E+02 0.  0.
        -11    1    3    3    0    0 -0.58445391569E+01 -0.81143875291E+01  0.16333474930E+01  0.10132608116E+02  0.51100000000E-03 0. -1.
         11    1    3    3    0    0  0.58445391569E+01  0.81143875291E+01  0.13259265194E+01  0.10087616385E+02  0.51100000000E-03 0.  1.
<mgrwt>
<rscale>  0 0.20002504E+02</rscale>
<asrwt>0</asrwt>
<pdfrwt beam="2">  1        4 0.13277654E-02 0.20002504E+02</pdfrwt>
<pdfrwt beam="1">  1       -4 0.17830383E-02 0.20002504E+02</pdfrwt>
<totfact> 0.12997615E+06</totfact>
</mgrwt>
</event>
<event>
 5    1  0.1154861E-006  0.2000152E+02  0.7818608E-02  0.1745298E+00
          4   -1    0    0  501    0  0.00000000000E+00  0.00000000000E+00  0.92142179391E+02  0.92153120527E+02  0.14200000000E+01 0.  1.
         -4   -1    0    0    0  501 -0.00000000000E+00 -0.00000000000E+00 -0.60522386002E+00  0.15435983677E+01  0.14200000000E+01 0. -1.
       1023    2    1    2    0    0  0.00000000000E+00  0.00000000000E+00  0.91536955531E+02  0.93696718895E+02  0.20001522537E+02 0.  0.
        -11    1    3    3    0    0 -0.58361112848E+01  0.81203938928E+01  0.46327361616E+02  0.47394360703E+02  0.51100000000E-03 0.  1.
         11    1    3    3    0    0  0.58361112848E+01 -0.81203938928E+01  0.45209593915E+02  0.46302358191E+02  0.51100000000E-03 0. -1.
<mgrwt>
<rscale>  0 0.20001523E+02</rscale>
<asrwt>0</asrwt>
<pdfrwt beam="1">  1        4 0.14248753E-01 0.20001523E+02</pdfrwt>
<pdfrwt beam="2">  1       -4 0.16613554E-03 0.20001523E+02</pdfrwt>
<totfact> 0.99830104E+05</totfact>
</mgrwt>
</event>
<event>
 5    1  0.1154861E-006  0.2000054E+02  0.7818608E-02  0.1745317E+00
          4   -1    0    0  501    0  0.00000000000E+00  0.00000000000E+00  0.58869797664E+02  0.58886921103E+02  0.14200000000E+01 0. -1.
         -4   -1    0    0    0  501 -0.00000000000E+00 -0.00000000000E+00 -0.13815220798E+01  0.19811620976E+01  0.14200000000E+01 0.  1.
       1023    2    1    2    0    0  0.00000000000E+00  0.00000000000E+00  0.57488275584E+02  0.60868083200E+02  0.20000543064E+02 0.  0.
        -11    1    3    3    0    0 -0.43852356875E+01  0.89874987966E+01  0.28738203989E+02  0.30428437282E+02  0.51100000000E-03 0. -1.
         11    1    3    3    0    0  0.43852356875E+01 -0.89874987966E+01  0.28750071595E+02  0.30439645918E+02  0.51100000000E-03 0.  1.
<mgrwt>
<rscale>  0 0.20000543E+02</rscale>
<asrwt>0</asrwt>
<pdfrwt beam="1">  1        4 0.91043370E-02 0.20000543E+02</pdfrwt>
<pdfrwt beam="2">  1       -4 0.25998515E-03 0.20000543E+02</pdfrwt>
<totfact> 0.11085045E+06</totfact>
</mgrwt>
</event>
<event>
 5    1  0.1154861E-006  0.2000029E+02  0.7818608E-02  0.1745322E+00
          4   -1    0    0  501    0  0.00000000000E+00  0.00000000000E+00  0.49245585107E+01  0.51252001449E+01  0.14200000000E+01 0. -1.
         -4   -1    0    0    0  501 -0.00000000000E+00 -0.00000000000E+00 -0.19674802980E+02  0.19725979629E+02  0.14200000000E+01 0.  1.
       1023    2    1    2    0    0  0.00000000000E+00  0.00000000000E+00 -0.14750244470E+02  0.24851179774E+02  0.20000285604E+02 0.  0.
        -11    1    3    3    0    0 -0.49940293425E+01  0.86638521825E+01 -0.73923430193E+01  0.12435811163E+02  0.51100000000E-03 0.  1.
         11    1    3    3    0    0  0.49940293425E+01 -0.86638521825E+01 -0.73579014503E+01  0.12415368610E+02  0.51100000000E-03 0. -1.
<mgrwt>
<rscale>  0 0.20000286E+02</rscale>
<asrwt>0</asrwt>
<pdfrwt beam="1">  1        4 0.77699504E-03 0.20000286E+02</pdfrwt>
<pdfrwt beam="2">  1       -4 0.30462633E-02 0.20000286E+02</pdfrwt>
<totfact> 0.12733541E+06</totfact>
</mgrwt>
</event>
<event>
 4    1  0.1154861E-006  0.2002056E+02  0.7818608E-02  0.1744920E+00
         -4   -1    0    0    0  501 -0.00000000000E+00  0.00000000000E+00  0.48048920723E+01  0.50103281157E+01  0.14200000000E+01 0. -1.
          4   -1    0    0  501    0  0.00000000000E+00 -0.00000000000E+00 -0.20187531533E+02  0.20237411628E+02  0.14200000000E+01 0.  1.
        -11    1    1    2    0    0 -0.84499978049E+01  0.53553455606E+01 -0.72481363099E+01  0.12353852403E+02  0.51100000000E-03 0.  1.
         11    1    1    2    0    0  0.84499978049E+01 -0.53553455606E+01 -0.81345031512E+01  0.12893887341E+02  0.51100000000E-03 0. -1.
<mgrwt>
<rscale>  0 0.20020559E+02</rscale>
<asrwt>0</asrwt>
<pdfrwt beam="2">  1        4 0.31254137E-02 0.20020559E+02</pdfrwt>
<pdfrwt beam="1">  1       -4 0.75885388E-03 0.20020559E+02</pdfrwt>
<totfact> 0.12685225E+06</totfact>
</mgrwt>
</event>
<event>
 4    1  0.1154861E-006  0.2004713E+02  0.7818608E-02  0.1744392E+00
          4   -1    0    0  501    0  0.00000000000E+00  0.00000000000E+00  0.23964571983E+02  0.24006605556E+02  0.14200000000E+01 0. -1.
         -4   -1    0    0    0  501 -0.00000000000E+00 -0.00000000000E+00 -0.40251364031E+01  0.42682693288E+01  0.14200000000E+01 0.  1.
        -11    1    1    2    0    0 -0.82130645228E+01  0.57458883692E+01  0.10035907871E+02  0.14184114673E+02  0.51100000000E-03 0.  1.
         11    1    1    2    0    0  0.82130645228E+01 -0.57458883692E+01  0.99035277089E+01  0.14090760212E+02  0.51100000000E-03 0. -1.
<mgrwt>
<rscale>  0 0.20047131E+02</rscale>
<asrwt>0</asrwt>
<pdfrwt beam="1">  1        4 0.37087930E-02 0.20047131E+02</pdfrwt>
<pdfrwt beam="2">  1       -4 0.64118765E-03 0.20047131E+02</pdfrwt>
<totfact> 0.12486918E+06</totfact>
</mgrwt>
</event>
<event>
 5    1  0.1162203E-006  0.2000063E+02  0.7818608E-02  0.1745315E+00
          4   -1    0    0  501    0  0.00000000000E+00  0.00000000000E+00  0.97868423103E+01  0.98893216353E+01  0.14200000000E+01 0.  1.
         -4   -1    0    0    0  501 -0.00000000000E+00 -0.00000000000E+00 -0.10012391094E+02  0.10112585002E+02  0.14200000000E+01 0. -1.
       1023    2    1    2    0    0  0.00000000000E+00  0.00000000000E+00 -0.22554878414E+00  0.20001906638E+02  0.20000634912E+02 0.  0.
        -11    1    3    3    0    0 -0.84189076888E+01 -0.53965514706E+01 -0.18744179089E+00  0.10001795296E+02  0.51100000000E-03 0. -1.
         11    1    3    3    0    0  0.84189076888E+01  0.53965514706E+01 -0.38106993248E-01  0.10000111342E+02  0.51100000000E-03 0.  1.
<mgrwt>
<rscale>  0 0.20000635E+02</rscale>
<asrwt>0</asrwt>
<pdfrwt beam="1">  1        4 0.15212583E-02 0.20000635E+02</pdfrwt>
<pdfrwt beam="2">  1       -4 0.15559581E-02 0.20000635E+02</pdfrwt>
<totfact> 0.13013088E+06</totfact>
</mgrwt>
</event>
<event>
 5    1  0.1176493E-006  0.2000103E+02  0.7818608E-02  0.1745308E+00
         -4   -1    0    0    0  501 -0.00000000000E+00  0.00000000000E+00  0.89484023275E+01  0.90603699822E+01  0.14200000000E+01 0.  1.
          4   -1    0    0  501    0  0.00000000000E+00 -0.00000000000E+00 -0.10948737974E+02  0.11040437637E+02  0.14200000000E+01 0. -1.
       1023    2    1    2    0    0  0.00000000000E+00  0.00000000000E+00 -0.20003356464E+01  0.20100807619E+02  0.20001028080E+02 0.  0.
        -11    1    3    3    0    0 -0.87265112837E+01 -0.48844660473E+01 -0.98356113300E+00  0.10048751192E+02  0.51100000000E-03 0. -1.
         11    1    3    3    0    0  0.87265112837E+01  0.48844660473E+01 -0.10167745134E+01  0.10052056428E+02  0.51100000000E-03 0.  1.
<mgrwt>
<rscale>  0 0.20001028E+02</rscale>
<asrwt>0</asrwt>
<pdfrwt beam="2">  1        4 0.17000880E-02 0.20001028E+02</pdfrwt>
<pdfrwt beam="1">  1       -4 0.13923440E-02 0.20001028E+02</pdfrwt>
<totfact> 0.13006699E+06</totfact>
</mgrwt>
</event>
<event>
 5    1  0.1154861E-006  0.2000386E+02  0.7818608E-02  0.1745251E+00
          4   -1    0    0  501    0  0.00000000000E+00  0.00000000000E+00  0.60678763808E+01  0.62318154476E+01  0.14200000000E+01 0. -1.
         -4   -1    0    0    0  501 -0.00000000000E+00 -0.00000000000E+00 -0.16071187653E+02  0.16133799074E+02  0.14200000000E+01 0. -1.
       1023    2    1    2    0    0  0.00000000000E+00  0.00000000000E+00 -0.10003311272E+02  0.22365614522E+02  0.20003861541E+02 0.  0.
        -11    1    3    3    0    0 -0.93219941907E+01 -0.36221083569E+01 -0.51572805927E+01  0.11252412542E+02  0.51100000000E-03 0.  1.
         11    1    3    3    0    0  0.93219941907E+01  0.36221083569E+01 -0.48460306791E+01  0.11113201980E+02  0.51100000000E-03 0. -1.
<mgrwt>
<rscale>  0 0.20003862E+02</rscale>
<asrwt>0</asrwt>
<pdfrwt beam="1">  1        4 0.95094641E-03 0.20003862E+02</pdfrwt>
<pdfrwt beam="2">  1       -4 0.24899173E-02 0.20003862E+02</pdfrwt>
<totfact> 0.12869990E+06</totfact>
</mgrwt>
</event>
<event>
 5    1  0.1154861E-006  0.2000049E+02  0.7818608E-02  0.1745318E+00
         -4   -1    0    0    0  501 -0.00000000000E+00  0.00000000000E+00  0.60968061302E+02  0.60984595587E+02  0.14200000000E+01 0. -1.
          4   -1    0    0  501    0  0.00000000000E+00 -0.00000000000E+00 -0.13129801391E+01  0.19339898774E+01  0.14200000000E+01 0.  1.
       1023    2    1    2    0    0  0.00000000000E+00  0.00000000000E+00  0.59655081163E+02  0.62918585464E+02  0.20000492202E+02 0.  0.
        -11    1    3    3    0    0  0.99991886259E+01  0.14216404883E+00  0.29923889084E+02  0.31550643765E+02  0.51100000000E-03 0. -1.
         11    1    3    3    0    0 -0.99991886259E+01 -0.14216404883E+00  0.29731192078E+02  0.31367941699E+02  0.51100000000E-03 0.  1.
<mgrwt>
<rscale>  0 0.20000492E+02</rscale>
<asrwt>0</asrwt>
<pdfrwt beam="2">  1        4 0.25103878E-03 0.20000492E+02</pdfrwt>
<pdfrwt beam="1">  1       -4 0.94287440E-02 0.20000492E+02</pdfrwt>
<totfact> 0.11007660E+06</totfact>
</mgrwt>
</event>
<event>
 5    1  0.1202216E-006  0.2000133E+02  0.7818608E-02  0.1745302E+00
         -4   -1    0    0    0  501 -0.00000000000E+00  0.00000000000E+00  0.27587843574E+01  0.31027876387E+01  0.14200000000E+01 0. -1.
          4   -1    0    0  501    0  0.00000000000E+00 -0.00000000000E+00 -0.33765268886E+02  0.33795114779E+02  0.14200000000E+01 0.  1.
       1023    2    1    2    0    0  0.00000000000E+00  0.00000000000E+00 -0.31006484529E+02  0.36897902418E+02  0.20001327956E+02 0.  0.
        -11    1    3    3    0    0  0.91472180669E+01 -0.40420115777E+01 -0.15617317049E+02  0.18544811890E+02  0.51100000000E-03 0. -1.
         11    1    3    3    0    0 -0.91472180669E+01  0.40420115777E+01 -0.15389167479E+02  0.18353090528E+02  0.51100000000E-03 0.  1.
<mgrwt>
<rscale>  0 0.20001328E+02</rscale>
<asrwt>0</asrwt>
<pdfrwt beam="2">  1        4 0.52234141E-02 0.20001328E+02</pdfrwt>
<pdfrwt beam="1">  1       -4 0.45318601E-03 0.20001328E+02</pdfrwt>
<totfact> 0.12107885E+06</totfact>
</mgrwt>
</event>
<event>
 5    1  0.1154861E-006  0.2000286E+02  0.7818608E-02  0.1745271E+00
         -4   -1    0    0    0  501 -0.00000000000E+00  0.00000000000E+00  0.92269486699E+02  0.92280412742E+02  0.14200000000E+01 0. -1.
          4   -1    0    0  501    0  0.00000000000E+00 -0.00000000000E+00 -0.60330198167E+00  0.15428458384E+01  0.14200000000E+01 0.  1.
       1023    2    1    2    0    0  0.00000000000E+00  0.00000000000E+00  0.91666184718E+02  0.93823258580E+02  0.20002860542E+02 0.  0.
        -11    1    3    3    0    0 -0.83501790219E+01  0.55028004027E+01  0.46533614445E+02  0.47596045797E+02  0.51100000000E-03 0.  1.
         11    1    3    3    0    0  0.83501790219E+01 -0.55028004027E+01  0.45132570273E+02  0.46227212783E+02  0.51100000000E-03 0. -1.
<mgrwt>
<rscale>  0 0.20002861E+02</rscale>
<asrwt>0</asrwt>
<pdfrwt beam="2">  1        4 0.16592882E-03 0.20002861E+02</pdfrwt>
<pdfrwt beam="1">  1       -4 0.14268413E-01 0.20002861E+02</pdfrwt>
<totfact> 0.99779247E+05</totfact>
</mgrwt>
</event>
<event>
 4    1  0.1154861E-006  0.2001372E+02  0.7818608E-02  0.1745055E+00
          4   -1    0    0  501    0  0.00000000000E+00  0.00000000000E+00  0.99718609986E+01  0.10072458080E+02  0.14200000000E+01 0.  1.
         -4   -1    0    0    0  501 -0.00000000000E+00 -0.00000000000E+00 -0.98397665964E+01  0.99417003914E+01  0.14200000000E+01 0. -1.
        -11    1    1    2    0    0  0.13111702292E+01  0.99182796753E+01 -0.14804447667E+00  0.10005666220E+02  0.51100000000E-03 0. -1.
         11    1    1    2    0    0 -0.13111702292E+01 -0.99182796753E+01  0.28013887884E+00  0.10008492251E+02  0.51100000000E-03 0.  1.
<mgrwt>
<rscale>  0 0.20013723E+02</rscale>
<asrwt>0</asrwt>
<pdfrwt beam="1">  1        4 0.15497118E-02 0.20013723E+02</pdfrwt>
<pdfrwt beam="2">  1       -4 0.15293895E-02 0.20013723E+02</pdfrwt>
<totfact> 0.12994989E+06</totfact>
</mgrwt>
</event>
<event>
 5    1  0.1195340E-006  0.2000128E+02  0.7818608E-02  0.1745303E+00
          4   -1    0    0  501    0  0.00000000000E+00  0.00000000000E+00  0.88093015429E+01  0.89230148309E+01  0.14200000000E+01 0.  1.
         -4   -1    0    0    0  501 -0.00000000000E+00 -0.00000000000E+00 -0.11121135221E+02  0.11211424914E+02  0.14200000000E+01 0. -1.
       1023    2    1    2    0    0  0.00000000000E+00  0.00000000000E+00 -0.23118336781E+01  0.20134439745E+02  0.20001277181E+02 0.  0.
        -11    1    3    3    0    0 -0.62549262480E+01  0.78030501033E+01 -0.11889787476E+01  0.10071016036E+02  0.51100000000E-03 0. -1.
         11    1    3    3    0    0  0.62549262480E+01 -0.78030501033E+01 -0.11228549305E+01  0.10063423709E+02  0.51100000000E-03 0.  1.
<mgrwt>
<rscale>  0 0.20001277E+02</rscale>
<asrwt>0</asrwt>
<pdfrwt beam="1">  1        4 0.13709697E-02 0.20001277E+02</pdfrwt>
<pdfrwt beam="2">  1       -4 0.17266364E-02 0.20001277E+02</pdfrwt>
<totfact> 0.13004362E+06</totfact>
</mgrwt>
</event>
<event>
 5    1  0.1206682E-006  0.2000209E+02  0.7818608E-02  0.1745286E+00
         -4   -1    0    0    0  501 -0.00000000000E+00  0.00000000000E+00  0.10463213004E+02  0.10559130000E+02  0.14200000000E+01 0.  1.
          4   -1    0    0  501    0  0.00000000000E+00 -0.00000000000E+00 -0.93660011269E+01  0.94730342082E+01  0.14200000000E+01 0. -1.
       1023    2    1    2    0    0  0.00000000000E+00  0.00000000000E+00  0.10972118768E+01  0.20032164208E+02  0.20002093115E+02 0.  0.
        -11    1    3    3    0    0  0.99971135519E+01 -0.28044169508E+00  0.55086049661E+00  0.10016205592E+02  0.51100000000E-03 0.  1.
         11    1    3    3    0    0 -0.99971135519E+01  0.28044169508E+00  0.54635138022E+00  0.10015958616E+02  0.51100000000E-03 0. -1.
<mgrwt>
<rscale>  0 0.20002093E+02</rscale>
<asrwt>0</asrwt>
<pdfrwt beam="2">  1        4 0.14565348E-02 0.20002093E+02</pdfrwt>
<pdfrwt beam="1">  1       -4 0.16253366E-02 0.20002093E+02</pdfrwt>
<totfact> 0.13009356E+06</totfact>
</mgrwt>
</event>
<event>
 5    1  0.1154861E-006  0.2000716E+02  0.7818608E-02  0.1745186E+00
         -4   -1    0    0    0  501 -0.00000000000E+00  0.00000000000E+00  0.57753483409E+01  0.59473564261E+01  0.14200000000E+01 0.  1.
          4   -1    0    0  501    0  0.00000000000E+00 -0.00000000000E+00 -0.16870852337E+02  0.16930506743E+02  0.14200000000E+01 0. -1.
       1023    2    1    2    0    0  0.00000000000E+00  0.00000000000E+00 -0.11095503996E+02  0.22877863169E+02  0.20007159075E+02 0.  0.
        -11    1    3    3    0    0 -0.93832917045E+01  0.34666447619E+01 -0.54466704427E+01  0.11389908177E+02  0.51100000000E-03 0. -1.
         11    1    3    3    0    0  0.93832917045E+01 -0.34666447619E+01 -0.56488335534E+01  0.11487954992E+02  0.51100000000E-03 0.  1.
<mgrwt>
<rscale>  0 0.20007159E+02</rscale>
<asrwt>0</asrwt>
<pdfrwt beam="2">  1        4 0.26133359E-02 0.20007159E+02</pdfrwt>
<pdfrwt beam="1">  1       -4 0.90633532E-03 0.20007159E+02</pdfrwt>
<totfact> 0.12836204E+06</totfact>
</mgrwt>
</event>
<event>
 4    1  0.1154861E-006  0.2002123E+02  0.7818608E-02  0.1744906E+00
         -4   -1    0    0    0  501 -0.00000000000E+00  0.00000000000E+00  0.14480046815E+01  0.20280822364E+01  0.14200000000E+01 0.  1.
          4   -1    0    0  501    0  0.00000000000E+00 -0.00000000000E+00 -0.57067788202E+02  0.57085452177E+02  0.14200000000E+01 0. -1.
        -11    1    1    2    0    0 -0.99276660460E+01 -0.12801610253E+01 -0.27447770287E+02  0.29216047977E+02  0.51100000000E-03 0.  1.
         11    1    1    2    0    0  0.99276660460E+01  0.12801610253E+01 -0.28172013233E+02  0.29897486437E+02  0.51100000000E-03 0. -1.
<mgrwt>
<rscale>  0 0.20021230E+02</rscale>
<asrwt>0</asrwt>
<pdfrwt beam="2">  1        4 0.88256384E-02 0.20021230E+02</pdfrwt>
<pdfrwt beam="1">  1       -4 0.26875011E-03 0.20021230E+02</pdfrwt>
<totfact> 0.11129209E+06</totfact>
</mgrwt>
</event>
<event>
 5    1  0.1154861E-006  0.2000031E+02  0.7818608E-02  0.1745322E+00
          4   -1    0    0  501    0  0.00000000000E+00  0.00000000000E+00  0.14263792274E+01  0.20126991083E+01  0.14200000000E+01 0.  1.
         -4   -1    0    0    0  501 -0.00000000000E+00 -0.00000000000E+00 -0.57560326616E+02  0.57577839488E+02  0.14200000000E+01 0. -1.
       1023    2    1    2    0    0  0.00000000000E+00  0.00000000000E+00 -0.56133947389E+02  0.59590538597E+02  0.20000306018E+02 0.  0.
        -11    1    3    3    0    0  0.54927386896E+01  0.83565896467E+01 -0.28016138291E+02  0.29747382638E+02  0.51100000000E-03 0. -1.
         11    1    3    3    0    0 -0.54927386896E+01 -0.83565896467E+01 -0.28117809098E+02  0.29843155958E+02  0.51100000000E-03 0.  1.
<mgrwt>
<rscale>  0 0.20000306E+02</rscale>
<asrwt>0</asrwt>
<pdfrwt beam="1">  1        4 0.26589168E-03 0.20000306E+02</pdfrwt>
<pdfrwt beam="2">  1       -4 0.89018821E-02 0.20000306E+02</pdfrwt>
<totfact> 0.11134261E+06</totfact>
</mgrwt>
</event>
<event>
 5    1  0.1154861E-006  0.2000052E+02  0.7818608E-02  0.1745318E+00
          4   -1    0    0  501    0  0.00000000000E+00  0.00000000000E+00  0.42387093675E+00  0.14819131456E+01  0.14200000000E+01 0.  1.
         -4   -1    0    0    0  501 -0.00000000000E+00 -0.00000000000E+00 -0.10388358428E+03  0.10389328893E+03  0.14200000000E+01 0. -1.
       1023    2    1    2    0    0  0.00000000000E+00  0.00000000000E+00 -0.10345971335E+03  0.10537520207E+03  0.20000523132E+02 0.  0.
        -11    1    3    3    0    0 -0.93441977141E+01 -0.35624270776E+01 -0.51823146367E+02  0.52779194928E+02  0.51100000000E-03 0. -1.
         11    1    3    3    0    0  0.93441977141E+01  0.35624270776E+01 -0.51636566981E+02  0.52596007144E+02  0.51100000000E-03 0.  1.
<mgrwt>
<rscale>  0 0.20000523E+02</rscale>
<asrwt>0</asrwt>
<pdfrwt beam="1">  1        4 0.14734537E-03 0.20000523E+02</pdfrwt>
<pdfrwt beam="2">  1       -4 0.16064215E-01 0.20000523E+02</pdfrwt>
<totfact> 0.96502959E+05</totfact>
</mgrwt>
</event>
<event>
 5    1  0.1154861E-006  0.2000038E+02  0.7818608E-02  0.1745321E+00
         -4   -1    0    0    0  501 -0.00000000000E+00  0.00000000000E+00  0.28114005391E+02  0.28149843679E+02  0.14200000000E+01 0. -1.
          4   -1    0    0  501    0  0.00000000000E+00 -0.00000000000E+00 -0.33756302305E+01  0.36621413754E+01  0.14200000000E+01 0.  1.
       1023    2    1    2    0    0  0.00000000000E+00  0.00000000000E+00  0.24738375161E+02  0.31811985054E+02  0.20000379684E+02 0.  0.
        -11    1    3    3    0    0  0.64582656356E+01  0.76349277684E+01  0.12289984868E+02  0.15844401073E+02  0.51100000000E-03 0. -1.
         11    1    3    3    0    0 -0.64582656356E+01 -0.76349277684E+01  0.12448390292E+02  0.15967583981E+02  0.51100000000E-03 0.  1.
<mgrwt>
<rscale>  0 0.20000380E+02</rscale>
<asrwt>0</asrwt>
<pdfrwt beam="2">  1        4 0.54412383E-03 0.20000380E+02</pdfrwt>
<pdfrwt beam="1">  1       -4 0.43500278E-02 0.20000380E+02</pdfrwt>
<totfact> 0.12361601E+06</totfact>
</mgrwt>
</event>
<event>
 5    1  0.1202655E-006  0.2000081E+02  0.7818608E-02  0.1745312E+00
          4   -1    0    0  501    0  0.00000000000E+00  0.00000000000E+00  0.93591472594E+01  0.94662578363E+01  0.14200000000E+01 0. -1.
         -4   -1    0    0    0  501 -0.00000000000E+00 -0.00000000000E+00 -0.10469487036E+02  0.10565347075E+02  0.14200000000E+01 0.  1.
       1023    2    1    2    0    0  0.00000000000E+00  0.00000000000E+00 -0.11103397771E+01  0.20031604911E+02  0.20000808506E+02 0.  0.
        -11    1    3    3    0    0 -0.65186090296E+00  0.99787590925E+01 -0.64207501494E+00  0.10020619554E+02  0.51100000000E-03 0. -1.
         11    1    3    3    0    0  0.65186090296E+00 -0.99787590925E+01 -0.46826476213E+00  0.10010985357E+02  0.51100000000E-03 0.  1.
<mgrwt>
<rscale>  0 0.20000809E+02</rscale>
<asrwt>0</asrwt>
<pdfrwt beam="1">  1        4 0.14554819E-02 0.20000809E+02</pdfrwt>
<pdfrwt beam="2">  1       -4 0.16263034E-02 0.20000809E+02</pdfrwt>
<totfact> 0.13011095E+06</totfact>
</mgrwt>
</event>
<event>
 5    1  0.1154861E-006  0.2000261E+02  0.7818608E-02  0.1745276E+00
          4   -1    0    0  501    0  0.00000000000E+00  0.00000000000E+00  0.39752142059E+02  0.39777496129E+02  0.14200000000E+01 0.  1.
         -4   -1    0    0    0  501 -0.00000000000E+00 -0.00000000000E+00 -0.22875769903E+01  0.26924725600E+01  0.14200000000E+01 0.  1.
       1023    2    1    2    0    0  0.00000000000E+00  0.00000000000E+00  0.37464565069E+02  0.42469968689E+02  0.20002614945E+02 0.  0.
        -11    1    3    3    0    0 -0.41123813737E+01 -0.91161636420E+01  0.18519633820E+02  0.21047397873E+02  0.51100000000E-03 0.  1.
         11    1    3    3    0    0  0.41123813737E+01  0.91161636420E+01  0.18944931249E+02  0.21422570816E+02  0.51100000000E-03 0. -1.
<mgrwt>
<rscale>  0 0.20002615E+02</rscale>
<asrwt>0</asrwt>
<pdfrwt beam="1">  1        4 0.61488103E-02 0.20002615E+02</pdfrwt>
<pdfrwt beam="2">  1       -4 0.38503105E-03 0.20002615E+02</pdfrwt>
<totfact> 0.11846032E+06</totfact>
</mgrwt>
</event>
<event>
 5    1  0.1154861E-006  0.2000027E+02  0.7818608E-02  0.1745323E+00
          4   -1    0    0  501    0  0.00000000000E+00  0.00000000000E+00  0.27630773731E+01  0.31066053128E+01  0.14200000000E+01 0. -1.
         -4   -1    0    0    0  501 -0.00000000000E+00 -0.00000000000E+00 -0.33714949759E+02  0.33744840158E+02  0.14200000000E+01 0.  1.
       1023    2    1    2    0    0  0.00000000000E+00  0.00000000000E+00 -0.30951872386E+02  0.36851445470E+02  0.20000265725E+02 0.  0.
        -11    1    3    3    0    0  0.94564859949E+01 -0.32520931780E+01 -0.15545358730E+02  0.18484031371E+02  0.51100000000E-03 0.  1.
         11    1    3    3    0    0 -0.94564859949E+01  0.32520931780E+01 -0.15406513656E+02  0.18367414100E+02  0.51100000000E-03 0. -1.
<mgrwt>
<rscale>  0 0.20000266E+02</rscale>
<asrwt>0</asrwt>
<pdfrwt beam="1">  1        4 0.45381334E-03 0.20000266E+02</pdfrwt>
<pdfrwt beam="2">  1       -4 0.52156396E-02 0.20000266E+02</pdfrwt>
<totfact> 0.12111428E+06</totfact>
</mgrwt>
</event>
<event>
 4    1  0.1154861E-006  0.2005800E+02  0.7818608E-02  0.1744177E+00
          4   -1    0    0  501    0  0.00000000000E+00  0.00000000000E+00  0.42247988752E+02  0.42271845874E+02  0.14200000000E+01 0. -1.
         -4   -1    0    0    0  501 -0.00000000000E+00 -0.00000000000E+00 -0.21421827731E+01  0.25700869700E+01  0.14200000000E+01 0.  1.
        -11    1    1    2    0    0 -0.25958193894E+01  0.96790484509E+01  0.20943113870E+02  0.23217154779E+02  0.51100000000E-03 0. -1.
         11    1    1    2    0    0  0.25958193894E+01 -0.96790484509E+01  0.19162692109E+02  0.21624778065E+02  0.51100000000E-03 0.  1.
<mgrwt>
<rscale>  0 0.20057998E+02</rscale>
<asrwt>0</asrwt>
<pdfrwt beam="1">  1        4 0.65344408E-02 0.20057998E+02</pdfrwt>
<pdfrwt beam="2">  1       -4 0.36431749E-03 0.20057998E+02</pdfrwt>
<totfact> 0.11674264E+06</totfact>
</mgrwt>
</event>
<event>
 5    1  0.1154861E-006  0.2000102E+02  0.7818608E-02  0.1745308E+00
         -4   -1    0    0    0  501 -0.00000000000E+00  0.00000000000E+00  0.76570427608E+02  0.76583593439E+02  0.14200000000E+01 0. -1.
          4   -1    0    0  501    0  0.00000000000E+00 -0.00000000000E+00 -0.90288193403E+00  0.16827346157E+01  0.14200000000E+01 0.  1.
       1023    2    1    2    0    0  0.00000000000E+00  0.00000000000E+00  0.75667545674E+02  0.78266328055E+02  0.20001015946E+02 0.  0.
        -11    1    3    3    0    0  0.99440588508E+01 -0.10581891744E+01  0.38139113925E+02  0.39428366464E+02  0.51100000000E-03 0. -1.
         11    1    3    3    0    0 -0.99440588508E+01  0.10581891744E+01  0.37528431749E+02  0.38837961591E+02  0.51100000000E-03 0.  1.
<mgrwt>
<rscale>  0 0.20001016E+02</rscale>
<asrwt>0</asrwt>
<pdfrwt beam="2">  1        4 0.19990636E-03 0.20001016E+02</pdfrwt>
<pdfrwt beam="1">  1       -4 0.11841066E-01 0.20001016E+02</pdfrwt>
<totfact> 0.10467132E+06</totfact>
</mgrwt>
</event>
<event>
 5    1  0.1154861E-006  0.2000079E+02  0.7818608E-02  0.1745312E+00
          4   -1    0    0  501    0  0.00000000000E+00  0.00000000000E+00  0.46948318144E+00  0.14955983611E+01  0.14200000000E+01 0.  1.
         -4   -1    0    0    0  501 -0.00000000000E+00 -0.00000000000E+00 -0.10075126470E+03  0.10076127103E+03  0.14200000000E+01 0. -1.
       1023    2    1    2    0    0  0.00000000000E+00  0.00000000000E+00 -0.10028178152E+03  0.10225686939E+03  0.20000790789E+02 0.  0.
        -11    1    3    3    0    0 -0.59703905590E+01 -0.80226044053E+01 -0.50206147968E+02  0.51192431461E+02  0.51100000000E-03 0. -1.
         11    1    3    3    0    0  0.59703905590E+01  0.80226044053E+01 -0.50075633554E+02  0.51064437929E+02  0.51100000000E-03 0.  1.
<mgrwt>
<rscale>  0 0.20000791E+02</rscale>
<asrwt>0</asrwt>
<pdfrwt beam="1">  1        4 0.15192992E-03 0.20000791E+02</pdfrwt>
<pdfrwt beam="2">  1       -4 0.15579888E-01 0.20000791E+02</pdfrwt>
<totfact> 0.97366871E+05</totfact>
</mgrwt>
</event>
<event>
 5    1  0.1154861E-006  0.2000160E+02  0.7818608E-02  0.1745296E+00
          4   -1    0    0  501    0  0.00000000000E+00  0.00000000000E+00  0.48685471453E+02  0.48706175487E+02  0.14200000000E+01 0. -1.
         -4   -1    0    0    0  501 -0.00000000000E+00 -0.00000000000E+00 -0.17851933664E+01  0.22810776741E+01  0.14200000000E+01 0.  1.
       1023    2    1    2    0    0  0.00000000000E+00  0.00000000000E+00  0.46900278086E+02  0.50987253161E+02  0.20001597445E+02 0.  0.
        -11    1    3    3    0    0  0.93410915476E+01 -0.35720273910E+01  0.23512780023E+02  0.25551246460E+02  0.51100000000E-03 0. -1.
         11    1    3    3    0    0 -0.93410915476E+01  0.35720273910E+01  0.23387498064E+02  0.25436006701E+02  0.51100000000E-03 0.  1.
<mgrwt>
<rscale>  0 0.20001597E+02</rscale>
<asrwt>0</asrwt>
<pdfrwt beam="1">  1        4 0.75298099E-02 0.20001597E+02</pdfrwt>
<pdfrwt beam="2">  1       -4 0.31438271E-03 0.20001597E+02</pdfrwt>
<totfact> 0.11477047E+06</totfact>
</mgrwt>
</event>
<event>
 5    1  0.1154861E-006  0.2000017E+02  0.7818608E-02  0.1745325E+00
         -4   -1    0    0    0  501 -0.00000000000E+00  0.00000000000E+00  0.97770120767E+01  0.98795933696E+01  0.14200000000E+01 0.  1.
          4   -1    0    0  501    0  0.00000000000E+00 -0.00000000000E+00 -0.10021973353E+02  0.10122072410E+02  0.14200000000E+01 0. -1.
       1023    2    1    2    0    0  0.00000000000E+00  0.00000000000E+00 -0.24496127579E+00  0.20001665780E+02  0.20000165698E+02 0.  0.
        -11    1    3    3    0    0  0.44383443514E+01  0.89611148949E+01 -0.15677582437E+00  0.10001252905E+02  0.51100000000E-03 0.  1.
         11    1    3    3    0    0 -0.44383443514E+01 -0.89611148949E+01 -0.88185451416E-01  0.10000412875E+02  0.51100000000E-03 0. -1.
<mgrwt>
<rscale>  0 0.20000166E+02</rscale>
<asrwt>0</asrwt>
<pdfrwt beam="2">  1        4 0.15574328E-02 0.20000166E+02</pdfrwt>
<pdfrwt beam="1">  1       -4 0.15197465E-02 0.20000166E+02</pdfrwt>
<totfact> 0.13013726E+06</totfact>
</mgrwt>
</event>
<event>
 4    1  0.1154861E-006  0.2022505E+02  0.7818608E-02  0.1740889E+00
         -4   -1    0    0    0  501 -0.00000000000E+00  0.00000000000E+00  0.17073994558E+02  0.17132941667E+02  0.14200000000E+01 0. -1.
          4   -1    0    0  501    0  0.00000000000E+00 -0.00000000000E+00 -0.58348425266E+01  0.60051467351E+01  0.14200000000E+01 0.  1.
        -11    1    1    2    0    0  0.10057205937E+02  0.10301648973E+01  0.53524553794E+01  0.11439292366E+02  0.51100000000E-03 0. -1.
         11    1    1    2    0    0 -0.10057205937E+02 -0.10301648973E+01  0.58866966519E+01  0.11698796037E+02  0.51100000000E-03 0.  1.
<mgrwt>
<rscale>  0 0.20225049E+02</rscale>
<asrwt>0</asrwt>
<pdfrwt beam="2">  1        4 0.91530280E-03 0.20225049E+02</pdfrwt>
<pdfrwt beam="1">  1       -4 0.26444031E-02 0.20225049E+02</pdfrwt>
<totfact> 0.12540936E+06</totfact>
</mgrwt>
</event>
<event>
 4    1  0.1154861E-006  0.2001241E+02  0.7818608E-02  0.1745081E+00
         -4   -1    0    0    0  501 -0.00000000000E+00  0.00000000000E+00  0.59608141881E+02  0.59625053279E+02  0.14200000000E+01 0. -1.
          4   -1    0    0  501    0  0.00000000000E+00 -0.00000000000E+00 -0.13592969029E+01  0.19657283816E+01  0.14200000000E+01 0.  1.
        -11    1    1    2    0    0  0.78429353067E+01  0.62074014425E+01  0.28250441120E+02  0.29968831986E+02  0.51100000000E-03 0.  1.
         11    1    1    2    0    0 -0.78429353067E+01 -0.62074014425E+01  0.29998403858E+02  0.31621949674E+02  0.51100000000E-03 0. -1.
<mgrwt>
<rscale>  0 0.20012407E+02</rscale>
<asrwt>0</asrwt>
<pdfrwt beam="2">  1        4 0.25707208E-03 0.20012407E+02</pdfrwt>
<pdfrwt beam="1">  1       -4 0.92184317E-02 0.20012407E+02</pdfrwt>
<totfact> 0.11044416E+06</totfact>
</mgrwt>
</event>
<event>
 5    1  0.1154861E-006  0.2000051E+02  0.7818608E-02  0.1745318E+00
         -4   -1    0    0    0  501 -0.00000000000E+00  0.00000000000E+00  0.26988684229E+01  0.30496378087E+01  0.14200000000E+01 0. -1.
          4   -1    0    0  501    0  0.00000000000E+00 -0.00000000000E+00 -0.34427137852E+02  0.34456410444E+02  0.14200000000E+01 0.  1.
       1023    2    1    2    0    0  0.00000000000E+00  0.00000000000E+00 -0.31728269429E+02  0.37506048253E+02  0.20000514357E+02 0.  0.
        -11    1    3    3    0    0  0.91447715868E+01  0.40469973519E+01 -0.15844607089E+02  0.18736504717E+02  0.51100000000E-03 0.  1.
         11    1    3    3    0    0 -0.91447715868E+01 -0.40469973519E+01 -0.15883662340E+02  0.18769543535E+02  0.51100000000E-03 0. -1.
<mgrwt>
<rscale>  0 0.20000514E+02</rscale>
<asrwt>0</asrwt>
<pdfrwt beam="2">  1        4 0.53257165E-02 0.20000514E+02</pdfrwt>
<pdfrwt beam="1">  1       -4 0.44444455E-03 0.20000514E+02</pdfrwt>
<totfact> 0.12079679E+06</totfact>
</mgrwt>
</event>
<event>
 5    1  0.1154861E-006  0.2000019E+02  0.7818608E-02  0.1745324E+00
         -4   -1    0    0    0  501 -0.00000000000E+00  0.00000000000E+00  0.27242377077E+01  0.30721118287E+01  0.14200000000E+01 0.  1.
          4   -1    0    0  501    0  0.00000000000E+00 -0.00000000000E+00 -0.34141622371E+02  0.34171139550E+02  0.14200000000E+01 0. -1.
       1023    2    1    2    0    0  0.00000000000E+00  0.00000000000E+00 -0.31417384663E+02  0.37243251378E+02  0.20000192853E+02 0.  0.
        -11    1    3    3    0    0 -0.90185770603E+01 -0.43205548560E+01 -0.15706180240E+02  0.18619506558E+02  0.51100000000E-03 0. -1.
         11    1    3    3    0    0  0.90185770603E+01  0.43205548560E+01 -0.15711204423E+02  0.18623744821E+02  0.51100000000E-03 0.  1.
<mgrwt>
<rscale>  0 0.20000193E+02</rscale>
<asrwt>0</asrwt>
<pdfrwt beam="2">  1        4 0.52815871E-02 0.20000193E+02</pdfrwt>
<pdfrwt beam="1">  1       -4 0.44814362E-03 0.20000193E+02</pdfrwt>
<totfact> 0.12092668E+06</totfact>
</mgrwt>
</event>
<event>
 5    1  0.1157159E-006  0.2000042E+02  0.7818608E-02  0.1745320E+00
          4   -1    0    0  501    0  0.00000000000E+00  0.00000000000E+00  0.14981276829E+02  0.15048423686E+02  0.14200000000E+01 0.  1.
         -4   -1    0    0    0  501 -0.00000000000E+00 -0.00000000000E+00 -0.65165786717E+01  0.66694975511E+01  0.14200000000E+01 0. -1.
       1023    2    1    2    0    0  0.00000000000E+00  0.00000000000E+00  0.84646981574E+01  0.21717921237E+02  0.20000424694E+02 0.  0.
        -11    1    3    3    0    0  0.31602711835E+01  0.94875208991E+01  0.42999874037E+01  0.10885323087E+02  0.51100000000E-03 0. -1.
         11    1    3    3    0    0 -0.31602711835E+01 -0.94875208991E+01  0.41647107537E+01  0.10832598150E+02  0.51100000000E-03 0.  1.
<mgrwt>
<rscale>  0 0.20000425E+02</rscale>
<asrwt>0</asrwt>
<pdfrwt beam="1">  1        4 0.23217400E-02 0.20000425E+02</pdfrwt>
<pdfrwt beam="2">  1       -4 0.10194787E-02 0.20000425E+02</pdfrwt>
<totfact> 0.12912076E+06</totfact>
</mgrwt>
</event>
<event>
 5    1  0.1154861E-006  0.2000173E+02  0.7818608E-02  0.1745294E+00
          4   -1    0    0  501    0  0.00000000000E+00  0.00000000000E+00  0.59643482493E+00  0.15401735293E+01  0.14200000000E+01 0. -1.
         -4   -1    0    0    0  501 -0.00000000000E+00 -0.00000000000E+00 -0.92670896888E+02  0.92681775609E+02  0.14200000000E+01 0.  1.
       1023    2    1    2    0    0  0.00000000000E+00  0.00000000000E+00 -0.92074462063E+02  0.94221949138E+02  0.20001728305E+02 0.  0.
        -11    1    3    3    0    0  0.88413514860E+01 -0.46738868734E+01 -0.46275990861E+02  0.47344292634E+02  0.51100000000E-03 0.  1.
         11    1    3    3    0    0 -0.88413514860E+01  0.46738868734E+01 -0.45798471201E+02  0.46877656503E+02  0.51100000000E-03 0. -1.
<mgrwt>
<rscale>  0 0.20001728E+02</rscale>
<asrwt>0</asrwt>
<pdfrwt beam="1">  1        4 0.16519139E-03 0.20001728E+02</pdfrwt>
<pdfrwt beam="2">  1       -4 0.14330487E-01 0.20001728E+02</pdfrwt>
<totfact> 0.99672418E+05</totfact>
</mgrwt>
</event>
<event>
 4    1  0.1154861E-006  0.2001484E+02  0.7818608E-02  0.1745033E+00
         -4   -1    0    0    0  501 -0.00000000000E+00  0.00000000000E+00  0.63364032217E+02  0.63379941454E+02  0.14200000000E+01 0.  1.
          4   -1    0    0  501    0  0.00000000000E+00 -0.00000000000E+00 -0.12421407999E+01  0.18866143662E+01  0.14200000000E+01 0. -1.
        -11    1    1    2    0    0  0.76037222635E+01 -0.65062914405E+01  0.31036103019E+02  0.32609632188E+02  0.51100000000E-03 0.  1.
         11    1    1    2    0    0 -0.76037222635E+01  0.65062914405E+01  0.31085788398E+02  0.32656923633E+02  0.51100000000E-03 0. -1.
<mgrwt>
<rscale>  0 0.20014842E+02</rscale>
<asrwt>0</asrwt>
<pdfrwt beam="2">  1        4 0.24189724E-03 0.20014842E+02</pdfrwt>
<pdfrwt beam="1">  1       -4 0.97991124E-02 0.20014842E+02</pdfrwt>
<totfact> 0.10904905E+06</totfact>
</mgrwt>
</event>
<event>
 5    1  0.1154861E-006  0.2000613E+02  0.7818608E-02  0.1745206E+00
          4   -1    0    0  501    0  0.00000000000E+00  0.00000000000E+00  0.57895885243E+01  0.59611857277E+01  0.14200000000E+01 0. -1.
         -4   -1    0    0    0  501 -0.00000000000E+00 -0.00000000000E+00 -0.16828648522E+02  0.16888452003E+02  0.14200000000E+01 0. -1.
       1023    2    1    2    0    0  0.00000000000E+00  0.00000000000E+00 -0.11039059997E+02  0.22849637731E+02  0.20006126532E+02 0.  0.
        -11    1    3    3    0    0 -0.66446537267E+01 -0.74772879203E+01 -0.55148695676E+01  0.11422567330E+02  0.51100000000E-03 0. -1.
         11    1    3    3    0    0  0.66446537267E+01  0.74772879203E+01 -0.55241904297E+01  0.11427070401E+02  0.51100000000E-03 0.  1.
<mgrwt>
<rscale>  0 0.20006127E+02</rscale>
<asrwt>0</asrwt>
<pdfrwt beam="1">  1        4 0.90850599E-03 0.20006127E+02</pdfrwt>
<pdfrwt beam="2">  1       -4 0.26068229E-02 0.20006127E+02</pdfrwt>
<totfact> 0.12839173E+06</totfact>
</mgrwt>
</event>
<event>
 5    1  0.1162095E-006  0.2000045E+02  0.7818608E-02  0.1745319E+00
          4   -1    0    0  501    0  0.00000000000E+00  0.00000000000E+00  0.55349858626E+01  0.57142338505E+01  0.14200000000E+01 0. -1.
         -4   -1    0    0    0  501 -0.00000000000E+00 -0.00000000000E+00 -0.17571473342E+02  0.17628757058E+02  0.14200000000E+01 0.  1.
       1023    2    1    2    0    0  0.00000000000E+00  0.00000000000E+00 -0.12036487480E+02  0.23342990909E+02  0.20000454838E+02 0.  0.
        -11    1    3    3    0    0  0.90145910266E+01  0.43290712774E+01 -0.59844441441E+01  0.11654067165E+02  0.51100000000E-03 0.  1.
         11    1    3    3    0    0 -0.90145910266E+01 -0.43290712774E+01 -0.60520433357E+01  0.11688923744E+02  0.51100000000E-03 0. -1.
<mgrwt>
<rscale>  0 0.20000455E+02</rscale>
<asrwt>0</asrwt>
<pdfrwt beam="1">  1        4 0.86973104E-03 0.20000455E+02</pdfrwt>
<pdfrwt beam="2">  1       -4 0.27214983E-02 0.20000455E+02</pdfrwt>
<totfact> 0.12818402E+06</totfact>
</mgrwt>
</event>
<event>
 4    1  0.1154861E-006  0.2073533E+02  0.7818608E-02  0.1731089E+00
         -4   -1    0    0    0  501 -0.00000000000E+00  0.00000000000E+00  0.21784008651E+01  0.26003519625E+01  0.14200000000E+01 0.  1.
          4   -1    0    0  501    0  0.00000000000E+00 -0.00000000000E+00 -0.44551713834E+02  0.44574337971E+02  0.14200000000E+01 0. -1.
        -11    1    1    2    0    0  0.95170958612E+01 -0.40187629904E+01 -0.23173760234E+02  0.25372203950E+02  0.51100000000E-03 0.  1.
         11    1    1    2    0    0 -0.95170958612E+01  0.40187629904E+01 -0.19199552735E+02  0.21802485984E+02  0.51100000000E-03 0. -1.
<mgrwt>
<rscale>  0 0.20735325E+02</rscale>
<asrwt>0</asrwt>
<pdfrwt beam="2">  1        4 0.68883073E-02 0.20735325E+02</pdfrwt>
<pdfrwt beam="1">  1       -4 0.36933672E-03 0.20735325E+02</pdfrwt>
<totfact> 0.10815687E+06</totfact>
</mgrwt>
</event>
<event>
 5    1  0.1154861E-006  0.2000052E+02  0.7818608E-02  0.1745318E+00
          4   -1    0    0  501    0  0.00000000000E+00  0.00000000000E+00  0.66603067901E+02  0.66618203622E+02  0.14200000000E+01 0. -1.
         -4   -1    0    0    0  501 -0.00000000000E+00 -0.00000000000E+00 -0.11469711960E+01  0.18253610395E+01  0.14200000000E+01 0.  1.
       1023    2    1    2    0    0  0.00000000000E+00  0.00000000000E+00  0.65456096705E+02  0.68443564662E+02  0.20000523686E+02 0.  0.
        -11    1    3    3    0    0  0.96803331427E+01 -0.25090193860E+01  0.32609077942E+02  0.34108004815E+02  0.51100000000E-03 0.  1.
         11    1    3    3    0    0 -0.96803331427E+01  0.25090193860E+01  0.32847018764E+02  0.34335559846E+02  0.51100000000E-03 0. -1.
<mgrwt>
<rscale>  0 0.20000524E+02</rscale>
<asrwt>0</asrwt>
<pdfrwt beam="1">  1        4 0.10299971E-01 0.20000524E+02</pdfrwt>
<pdfrwt beam="2">  1       -4 0.22980530E-03 0.20000524E+02</pdfrwt>
<totfact> 0.10805527E+06</totfact>
</mgrwt>
</event>
<event>
 5    1  0.1154861E-006  0.2000037E+02  0.7818608E-02  0.1745321E+00
         -4   -1    0    0    0  501 -0.00000000000E+00  0.00000000000E+00  0.68332896186E+02  0.68347648834E+02  0.14200000000E+01 0. -1.
          4   -1    0    0  501    0  0.00000000000E+00 -0.00000000000E+00 -0.11005221986E+01  0.17965380902E+01  0.14200000000E+01 0.  1.
       1023    2    1    2    0    0  0.00000000000E+00  0.00000000000E+00  0.67232373987E+02  0.70144186924E+02  0.20000371179E+02 0.  0.
        -11    1    3    3    0    0  0.42115266356E+01 -0.90701002086E+01  0.33637569441E+02  0.35092588285E+02  0.51100000000E-03 0.  1.
         11    1    3    3    0    0 -0.42115266356E+01  0.90701002086E+01  0.33594804546E+02  0.35051598639E+02  0.51100000000E-03 0. -1.
<mgrwt>
<rscale>  0 0.20000371E+02</rscale>
<asrwt>0</asrwt>
<pdfrwt beam="2">  1        4 0.22398563E-03 0.20000371E+02</pdfrwt>
<pdfrwt beam="1">  1       -4 0.10567427E-01 0.20000371E+02</pdfrwt>
<totfact> 0.10745313E+06</totfact>
</mgrwt>
</event>
<event>
 5    1  0.1154861E-006  0.2000139E+02  0.7818608E-02  0.1745300E+00
          4   -1    0    0  501    0  0.00000000000E+00  0.00000000000E+00  0.24206311014E+00  0.14404841371E+01  0.14200000000E+01 0.  1.
         -4   -1    0    0    0  501 -0.00000000000E+00 -0.00000000000E+00 -0.11767819266E+03  0.11768675978E+03  0.14200000000E+01 0. -1.
       1023    2    1    2    0    0  0.00000000000E+00  0.00000000000E+00 -0.11743612955E+03  0.11912724392E+03  0.20001392948E+02 0.  0.
        -11    1    3    3    0    0  0.98458045046E+01  0.17523256397E+01 -0.59066281961E+02  0.59906895901E+02  0.51100000000E-03 0. -1.
         11    1    3    3    0    0 -0.98458045046E+01 -0.17523256397E+01 -0.58369847587E+02  0.59220348015E+02  0.51100000000E-03 0.  1.
<mgrwt>
<rscale>  0 0.20001393E+02</rscale>
<asrwt>0</asrwt>
<pdfrwt beam="1">  1        4 0.13008581E-03 0.20001393E+02</pdfrwt>
<pdfrwt beam="2">  1       -4 0.18197169E-01 0.20001393E+02</pdfrwt>
<totfact> 0.92865596E+05</totfact>
</mgrwt>
</event>
<event>
 5    1  0.1154861E-006  0.2000296E+02  0.7818608E-02  0.1745269E+00
         -4   -1    0    0    0  501 -0.00000000000E+00  0.00000000000E+00  0.11767682988E+01  0.18442298200E+01  0.14200000000E+01 0. -1.
          4   -1    0    0  501    0  0.00000000000E+00 -0.00000000000E+00 -0.65546058390E+02  0.65561438136E+02  0.14200000000E+01 0.  1.
       1023    2    1    2    0    0  0.00000000000E+00  0.00000000000E+00 -0.64369290091E+02  0.67405667956E+02  0.20002963924E+02 0.  0.
        -11    1    3    3    0    0  0.77084684380E+01  0.63723878582E+01 -0.32328740410E+02  0.33840438375E+02  0.51100000000E-03 0. -1.
         11    1    3    3    0    0 -0.77084684380E+01 -0.63723878582E+01 -0.32040549681E+02  0.33565229581E+02  0.51100000000E-03 0.  1.
<mgrwt>
<rscale>  0 0.20002964E+02</rscale>
<asrwt>0</asrwt>
<pdfrwt beam="2">  1        4 0.10136533E-01 0.20002964E+02</pdfrwt>
<pdfrwt beam="1">  1       -4 0.23356758E-03 0.20002964E+02</pdfrwt>
<totfact> 0.10840132E+06</totfact>
</mgrwt>
</event>
<event>
 5    1  0.1154861E-006  0.2000007E+02  0.7818608E-02  0.1745327E+00
         -4   -1    0    0    0  501 -0.00000000000E+00  0.00000000000E+00  0.35979086227E+01  0.38679899763E+01  0.14200000000E+01 0.  1.
          4   -1    0    0  501    0  0.00000000000E+00 -0.00000000000E+00 -0.26498887307E+02  0.26536906913E+02  0.14200000000E+01 0. -1.
       1023    2    1    2    0    0  0.00000000000E+00  0.00000000000E+00 -0.22900978684E+02  0.30404896889E+02  0.20000073253E+02 0.  0.
        -11    1    3    3    0    0  0.99885736016E+01  0.47866666305E+00 -0.11454763840E+02  0.15205667998E+02  0.51100000000E-03 0.  1.
         11    1    3    3    0    0 -0.99885736016E+01 -0.47866666305E+00 -0.11446214844E+02  0.15199228891E+02  0.51100000000E-03 0. -1.
<mgrwt>
<rscale>  0 0.20000073E+02</rscale>
<asrwt>0</asrwt>
<pdfrwt beam="2">  1        4 0.41004519E-02 0.20000073E+02</pdfrwt>
<pdfrwt beam="1">  1       -4 0.57722449E-03 0.20000073E+02</pdfrwt>
<totfact> 0.12434554E+06</totfact>
</mgrwt>
</event>
<event>
 5    1  0.1154861E-006  0.2000076E+02  0.7818608E-02  0.1745313E+00
          4   -1    0    0  501    0  0.00000000000E+00  0.00000000000E+00  0.19826754721E+01  0.24387295929E+01  0.14200000000E+01 0.  1.
         -4   -1    0    0    0  501 -0.00000000000E+00 -0.00000000000E+00 -0.44769468575E+02  0.44791982726E+02  0.14200000000E+01 0. -1.
       1023    2    1    2    0    0  0.00000000000E+00  0.00000000000E+00 -0.42786793103E+02  0.47230712319E+02  0.20000763038E+02 0.  0.
        -11    1    3    3    0    0  0.73407768682E+01 -0.67911799422E+01 -0.21446211871E+02  0.23663202106E+02  0.51100000000E-03 0. -1.
         11    1    3    3    0    0 -0.73407768682E+01  0.67911799422E+01 -0.21340581232E+02  0.23567510213E+02  0.51100000000E-03 0.  1.
<mgrwt>
<rscale>  0 0.20000763E+02</rscale>
<asrwt>0</asrwt>
<pdfrwt beam="1">  1        4 0.34183997E-03 0.20000763E+02</pdfrwt>
<pdfrwt beam="2">  1       -4 0.69244228E-02 0.20000763E+02</pdfrwt>
<totfact> 0.11637389E+06</totfact>
</mgrwt>
</event>
<event>
 5    1  0.1154861E-006  0.2000058E+02  0.7818608E-02  0.1745316E+00
         -4   -1    0    0    0  501 -0.00000000000E+00  0.00000000000E+00  0.45769404192E+02  0.45791426710E+02  0.14200000000E+01 0.  1.
          4   -1    0    0  501    0  0.00000000000E+00 -0.00000000000E+00 -0.19292670332E+01  0.23955106524E+01  0.14200000000E+01 0. -1.
       1023    2    1    2    0    0  0.00000000000E+00  0.00000000000E+00  0.43840137159E+02  0.48186937362E+02  0.20000582647E+02 0.  0.
        -11    1    3    3    0    0  0.71478084020E+01  0.69938879816E+01  0.21953473556E+02  0.24123860294E+02  0.51100000000E-03 0. -1.
         11    1    3    3    0    0 -0.71478084020E+01 -0.69938879816E+01  0.21886663603E+02  0.24063077068E+02  0.51100000000E-03 0.  1.
<mgrwt>
<rscale>  0 0.20000583E+02</rscale>
<asrwt>0</asrwt>
<pdfrwt beam="2">  1        4 0.33436928E-03 0.20000583E+02</pdfrwt>
<pdfrwt beam="1">  1       -4 0.70790050E-02 0.20000583E+02</pdfrwt>
<totfact> 0.11596467E+06</totfact>
</mgrwt>
</event>
<event>
 5    1  0.1165765E-006  0.2000074E+02  0.7818608E-02  0.1745313E+00
         -4   -1    0    0    0  501 -0.00000000000E+00  0.00000000000E+00  0.10744775664E+02  0.10838201145E+02  0.14200000000E+01 0. -1.
          4   -1    0    0  501    0  0.00000000000E+00 -0.00000000000E+00 -0.91186352103E+01  0.92285377010E+01  0.14200000000E+01 0.  1.
       1023    2    1    2    0    0  0.00000000000E+00  0.00000000000E+00  0.16261404536E+01  0.20066738846E+02  0.20000741865E+02 0.  0.
        -11    1    3    3    0    0  0.24734716350E+01  0.96894415432E+01  0.74899102408E+00  0.10028176662E+02  0.51100000000E-03 0.  1.
         11    1    3    3    0    0 -0.24734716350E+01 -0.96894415432E+01  0.87714942957E+00  0.10038562184E+02  0.51100000000E-03 0. -1.
<mgrwt>
<rscale>  0 0.20000742E+02</rscale>
<asrwt>0</asrwt>
<pdfrwt beam="2">  1        4 0.14185076E-02 0.20000742E+02</pdfrwt>
<pdfrwt beam="1">  1       -4 0.16686830E-02 0.20000742E+02</pdfrwt>
<totfact> 0.13009099E+06</totfact>
</mgrwt>
</event>
<event>
 5    1  0.1196184E-006  0.2000074E+02  0.7818608E-02  0.1745313E+00
          4   -1    0    0  501    0  0.00000000000E+00  0.00000000000E+00  0.82342396186E+01  0.83557825544E+01  0.14200000000E+01 0. -1.
         -4   -1    0    0    0  501 -0.00000000000E+00 -0.00000000000E+00 -0.11892243773E+02  0.11976721670E+02  0.14200000000E+01 0.  1.
       1023    2    1    2    0    0  0.00000000000E+00  0.00000000000E+00 -0.36580041546E+01  0.20332504224E+02  0.20000743327E+02 0.  0.
        -11    1    3    3    0    0  0.99756112938E+01  0.70294738127E+00 -0.18067891418E+01  0.10162255801E+02  0.51100000000E-03 0.  1.
         11    1    3    3    0    0 -0.99756112938E+01 -0.70294738127E+00 -0.18512150128E+01  0.10170248423E+02  0.51100000000E-03 0. -1.
<mgrwt>
<rscale>  0 0.20000743E+02</rscale>
<asrwt>0</asrwt>
<pdfrwt beam="1">  1        4 0.12826539E-02 0.20000743E+02</pdfrwt>
<pdfrwt beam="2">  1       -4 0.18454237E-02 0.20000743E+02</pdfrwt>
<totfact> 0.12993270E+06</totfact>
</mgrwt>
</event>
<event>
 5    1  0.1154861E-006  0.2000151E+02  0.7818608E-02  0.1745298E+00
          4   -1    0    0  501    0  0.00000000000E+00  0.00000000000E+00  0.40817500974E+02  0.40842193695E+02  0.14200000000E+01 0. -1.
         -4   -1    0    0    0  501 -0.00000000000E+00 -0.00000000000E+00 -0.22169109753E+01  0.26326971478E+01  0.14200000000E+01 0.  1.
       1023    2    1    2    0    0  0.00000000000E+00  0.00000000000E+00  0.38600589999E+02  0.43474890842E+02  0.20001514580E+02 0.  0.
        -11    1    3    3    0    0  0.60337571566E+00 -0.99825046561E+01  0.19357168369E+02  0.21787942285E+02  0.51100000000E-03 0.  1.
         11    1    3    3    0    0 -0.60337571566E+00  0.99825046561E+01  0.19243421630E+02  0.21686948558E+02  0.51100000000E-03 0. -1.
<mgrwt>
<rscale>  0 0.20001515E+02</rscale>
<asrwt>0</asrwt>
<pdfrwt beam="1">  1        4 0.63134985E-02 0.20001515E+02</pdfrwt>
<pdfrwt beam="2">  1       -4 0.37494622E-03 0.20001515E+02</pdfrwt>
<totfact> 0.11801973E+06</totfact>
</mgrwt>
</event>
<event>
 5    1  0.1154861E-006  0.2000623E+02  0.7818608E-02  0.1745204E+00
         -4   -1    0    0    0  501 -0.00000000000E+00  0.00000000000E+00  0.14185441574E+02  0.14256337281E+02  0.14200000000E+01 0. -1.
          4   -1    0    0  501    0  0.00000000000E+00 -0.00000000000E+00 -0.68928404947E+01  0.70375883714E+01  0.14200000000E+01 0.  1.
       1023    2    1    2    0    0  0.00000000000E+00  0.00000000000E+00  0.72926010798E+01  0.21293925652E+02  0.20006230009E+02 0.  0.
        -11    1    3    3    0    0 -0.11618889966E+01 -0.99336433795E+01  0.38455748022E+01  0.10715208941E+02  0.51100000000E-03 0. -1.
         11    1    3    3    0    0  0.11618889966E+01  0.99336433795E+01  0.34470262775E+01  0.10578716711E+02  0.51100000000E-03 0.  1.
<mgrwt>
<rscale>  0 0.20006230E+02</rscale>
<asrwt>0</asrwt>
<pdfrwt beam="2">  1        4 0.10770250E-02 0.20006230E+02</pdfrwt>
<pdfrwt beam="1">  1       -4 0.21989636E-02 0.20006230E+02</pdfrwt>
<totfact> 0.12929228E+06</totfact>
</mgrwt>
</event>
<event>
 5    1  0.1154861E-006  0.2000873E+02  0.7818608E-02  0.1745155E+00
         -4   -1    0    0    0  501 -0.00000000000E+00  0.00000000000E+00  0.11287714899E+03  0.11288608048E+03  0.14200000000E+01 0.  1.
          4   -1    0    0  501    0  0.00000000000E+00 -0.00000000000E+00 -0.30336316019E+00  0.14520431147E+01  0.14200000000E+01 0. -1.
       1023    2    1    2    0    0  0.00000000000E+00  0.00000000000E+00  0.11257378583E+03  0.11433812359E+03  0.20008729322E+02 0.  0.
        -11    1    3    3    0    0 -0.88381707767E+01  0.46815503478E+01  0.54920973101E+02  0.55824219322E+02  0.51100000000E-03 0. -1.
         11    1    3    3    0    0  0.88381707767E+01 -0.46815503478E+01  0.57652812734E+02  0.58513904269E+02  0.51100000000E-03 0.  1.
<mgrwt>
<rscale>  0 0.20008729E+02</rscale>
<asrwt>0</asrwt>
<pdfrwt beam="2">  1        4 0.13571837E-03 0.20008729E+02</pdfrwt>
<pdfrwt beam="1">  1       -4 0.17454752E-01 0.20008729E+02</pdfrwt>
<totfact> 0.94026352E+05</totfact>
</mgrwt>
</event>
<event>
 5    1  0.1154861E-006  0.2000248E+02  0.7818608E-02  0.1745279E+00
         -4   -1    0    0    0  501 -0.00000000000E+00  0.00000000000E+00  0.20920997731E+02  0.20969133174E+02  0.14200000000E+01 0. -1.
          4   -1    0    0  501    0  0.00000000000E+00 -0.00000000000E+00 -0.46206829152E+01  0.48339539306E+01  0.14200000000E+01 0.  1.
       1023    2    1    2    0    0  0.00000000000E+00  0.00000000000E+00  0.16300314816E+02  0.25803087105E+02  0.20002475873E+02 0.  0.
        -11    1    3    3    0    0 -0.64755280207E+01 -0.76218113017E+01  0.81282149141E+01  0.12887682050E+02  0.51100000000E-03 0. -1.
         11    1    3    3    0    0  0.64755280207E+01  0.76218113017E+01  0.81720999021E+01  0.12915405055E+02  0.51100000000E-03 0.  1.
<mgrwt>
<rscale>  0 0.20002476E+02</rscale>
<asrwt>0</asrwt>
<pdfrwt beam="2">  1        4 0.73098247E-03 0.20002476E+02</pdfrwt>
<pdfrwt beam="1">  1       -4 0.32387233E-02 0.20002476E+02</pdfrwt>
<totfact> 0.12677827E+06</totfact>
</mgrwt>
</event>
<event>
 4    1  0.1154861E-006  0.2014976E+02  0.7818608E-02  0.1742366E+00
          4   -1    0    0  501    0  0.00000000000E+00  0.00000000000E+00  0.30961820189E+01  0.34062799494E+01  0.14200000000E+01 0.  1.
         -4   -1    0    0    0  501 -0.00000000000E+00 -0.00000000000E+00 -0.30892731933E+02  0.30925350221E+02  0.14200000000E+01 0. -1.
        -11    1    1    2    0    0  0.81030649483E+01  0.59424689233E+01 -0.12657215091E+02  0.16160992933E+02  0.51100000000E-03 0.  1.
         11    1    1    2    0    0 -0.81030649483E+01 -0.59424689233E+01 -0.15139334823E+02  0.18170637237E+02  0.51100000000E-03 0. -1.
<mgrwt>
<rscale>  0 0.20149755E+02</rscale>
<asrwt>0</asrwt>
<pdfrwt beam="1">  1        4 0.50269850E-03 0.20149755E+02</pdfrwt>
<pdfrwt beam="2">  1       -4 0.47790906E-02 0.20149755E+02</pdfrwt>
<totfact> 0.12051125E+06</totfact>
</mgrwt>
</event>
<event>
 5    1  0.1154861E-006  0.2000043E+02  0.7818608E-02  0.1745320E+00
          4   -1    0    0  501    0  0.00000000000E+00  0.00000000000E+00  0.87777302793E+00  0.16693967439E+01  0.14200000000E+01 0.  1.
         -4   -1    0    0    0  501 -0.00000000000E+00 -0.00000000000E+00 -0.77721764145E+02  0.77734734977E+02  0.14200000000E+01 0. -1.
       1023    2    1    2    0    0  0.00000000000E+00  0.00000000000E+00 -0.76843991117E+02  0.79404131720E+02  0.20000429081E+02 0.  0.
        -11    1    3    3    0    0  0.46198151627E+01  0.88690290500E+01 -0.38247935468E+02  0.39533617798E+02  0.51100000000E-03 0. -1.
         11    1    3    3    0    0 -0.46198151627E+01 -0.88690290500E+01 -0.38596055650E+02  0.39870513922E+02  0.51100000000E-03 0.  1.
<mgrwt>
<rscale>  0 0.20000429E+02</rscale>
<asrwt>0</asrwt>
<pdfrwt beam="1">  1        4 0.19693395E-03 0.20000429E+02</pdfrwt>
<pdfrwt beam="2">  1       -4 0.12019083E-01 0.20000429E+02</pdfrwt>
<totfact> 0.10430233E+06</totfact>
</mgrwt>
</event>
<event>
 5    1  0.1183277E-006  0.2000059E+02  0.7818608E-02  0.1745316E+00
         -4   -1    0    0    0  501 -0.00000000000E+00  0.00000000000E+00  0.60313738228E+01  0.61962787373E+01  0.14200000000E+01 0.  1.
          4   -1    0    0  501    0  0.00000000000E+00 -0.00000000000E+00 -0.16160878766E+02  0.16223144039E+02  0.14200000000E+01 0. -1.
       1023    2    1    2    0    0  0.00000000000E+00  0.00000000000E+00 -0.10129504943E+02  0.22419422776E+02  0.20000591171E+02 0.  0.
        -11    1    3    3    0    0  0.92720859388E+01 -0.37462369551E+01 -0.50720652411E+01  0.11213015431E+02  0.51100000000E-03 0.  1.
         11    1    3    3    0    0 -0.92720859388E+01  0.37462369551E+01 -0.50574397024E+01  0.11206407345E+02  0.51100000000E-03 0. -1.
<mgrwt>
<rscale>  0 0.20000591E+02</rscale>
<asrwt>0</asrwt>
<pdfrwt beam="2">  1        4 0.25037636E-02 0.20000591E+02</pdfrwt>
<pdfrwt beam="1">  1       -4 0.94537830E-03 0.20000591E+02</pdfrwt>
<totfact> 0.12871173E+06</totfact>
</mgrwt>
</event>
<event>
 4    1  0.1154861E-006  0.2004303E+02  0.7818608E-02  0.1744474E+00
          4   -1    0    0  501    0  0.00000000000E+00  0.00000000000E+00  0.11094300191E+02  0.11184806513E+02  0.14200000000E+01 0.  1.
         -4   -1    0    0    0  501 -0.00000000000E+00 -0.00000000000E+00 -0.88684694760E+01  0.89814336743E+01  0.14200000000E+01 0. -1.
        -11    1    1    2    0    0  0.27110458116E+01  0.96420925827E+01  0.77768369460E+00  0.10046119199E+02  0.51100000000E-03 0. -1.
         11    1    1    2    0    0 -0.27110458116E+01 -0.96420925827E+01  0.14481470204E+01  0.10120120988E+02  0.51100000000E-03 0.  1.
<mgrwt>
<rscale>  0 0.20043027E+02</rscale>
<asrwt>0</asrwt>
<pdfrwt beam="1">  1        4 0.17224670E-02 0.20043027E+02</pdfrwt>
<pdfrwt beam="2">  1       -4 0.13800315E-02 0.20043027E+02</pdfrwt>
<totfact> 0.12947229E+06</totfact>
</mgrwt>
</event>
<event>
 5    1  0.1159143E-006  0.2000068E+02  0.7818608E-02  0.1745315E+00
          4   -1    0    0  501    0  0.00000000000E+00  0.00000000000E+00  0.15417459218E+02  0.15482714515E+02  0.14200000000E+01 0.  1.
         -4   -1    0    0    0  501 -0.00000000000E+00 -0.00000000000E+00 -0.63287998089E+01  0.64861473173E+01  0.14200000000E+01 0. -1.
       1023    2    1    2    0    0  0.00000000000E+00  0.00000000000E+00  0.90886594095E+01  0.21968861832E+02  0.20000678997E+02 0.  0.
        -11    1    3    3    0    0  0.79210123211E+01  0.61044426626E+01  0.45570167351E+01  0.10989679622E+02  0.51100000000E-03 0. -1.
         11    1    3    3    0    0 -0.79210123211E+01 -0.61044426626E+01  0.45316426743E+01  0.10979182210E+02  0.51100000000E-03 0.  1.
<mgrwt>
<rscale>  0 0.20000679E+02</rscale>
<asrwt>0</asrwt>
<pdfrwt beam="1">  1        4 0.23890400E-02 0.20000679E+02</pdfrwt>
<pdfrwt beam="2">  1       -4 0.99078483E-03 0.20000679E+02</pdfrwt>
<totfact> 0.12897139E+06</totfact>
</mgrwt>
</event>
<event>
 5    1  0.1154861E-006  0.2000347E+02  0.7818608E-02  0.1745259E+00
         -4   -1    0    0    0  501 -0.00000000000E+00  0.00000000000E+00  0.12192242590E+01  0.18716056726E+01  0.14200000000E+01 0.  1.
          4   -1    0    0  501    0  0.00000000000E+00 -0.00000000000E+00 -0.64068066291E+02  0.64083800748E+02  0.14200000000E+01 0. -1.
       1023    2    1    2    0    0  0.00000000000E+00  0.00000000000E+00 -0.62848842032E+02  0.65955406421E+02  0.20003466982E+02 0.  0.
        -11    1    3    3    0    0  0.13029756351E+01 -0.99162925767E+01 -0.31634734608E+02  0.33178110826E+02  0.51100000000E-03 0.  1.
         11    1    3    3    0    0 -0.13029756351E+01  0.99162925767E+01 -0.31214107424E+02  0.32777295595E+02  0.51100000000E-03 0. -1.
<mgrwt>
<rscale>  0 0.20003467E+02</rscale>
<asrwt>0</asrwt>
<pdfrwt beam="2">  1        4 0.99080170E-02 0.20003467E+02</pdfrwt>
<pdfrwt beam="1">  1       -4 0.23896654E-03 0.20003467E+02</pdfrwt>
<totfact> 0.10892170E+06</totfact>
</mgrwt>
</event>
<event>
 5    1  0.1154861E-006  0.2000425E+02  0.7818608E-02  0.1745244E+00
          4   -1    0    0  501    0  0.00000000000E+00  0.00000000000E+00  0.93061721224E+01  0.94138854663E+01  0.14200000000E+01 0.  1.
         -4   -1    0    0    0  501 -0.00000000000E+00 -0.00000000000E+00 -0.10532631482E+02  0.10627921995E+02  0.14200000000E+01 0. -1.
       1023    2    1    2    0    0  0.00000000000E+00  0.00000000000E+00 -0.12264593598E+01  0.20041807462E+02  0.20004245644E+02 0.  0.
        -11    1    3    3    0    0 -0.14060982851E+01  0.99019043696E+01 -0.74628774875E+00  0.10029046226E+02  0.51100000000E-03 0.  1.
         11    1    3    3    0    0  0.14060982851E+01 -0.99019043696E+01 -0.48017161101E+00  0.10012761236E+02  0.51100000000E-03 0. -1.
<mgrwt>
<rscale>  0 0.20004246E+02</rscale>
<asrwt>0</asrwt>
<pdfrwt beam="1">  1        4 0.14473345E-02 0.20004246E+02</pdfrwt>
<pdfrwt beam="2">  1       -4 0.16360205E-02 0.20004246E+02</pdfrwt>
<totfact> 0.13005925E+06</totfact>
</mgrwt>
</event>
<event>
 4    1  0.1154861E-006  0.2004050E+02  0.7818608E-02  0.1744524E+00
         -4   -1    0    0    0  501 -0.00000000000E+00  0.00000000000E+00  0.65702411112E+01  0.67219393227E+01  0.14200000000E+01 0. -1.
          4   -1    0    0  501    0  0.00000000000E+00 -0.00000000000E+00 -0.14921649615E+02  0.14989063587E+02  0.14200000000E+01 0.  1.
        -11    1    1    2    0    0 -0.32360210818E+00  0.99961386021E+01 -0.35097261300E+01  0.10599324650E+02  0.51100000000E-03 0. -1.
         11    1    1    2    0    0  0.32360210818E+00 -0.99961386021E+01 -0.48416823737E+01  0.11111678260E+02  0.51100000000E-03 0.  1.
<mgrwt>
<rscale>  0 0.20040500E+02</rscale>
<asrwt>0</asrwt>
<pdfrwt beam="2">  1        4 0.23124932E-02 0.20040500E+02</pdfrwt>
<pdfrwt beam="1">  1       -4 0.10276611E-02 0.20040500E+02</pdfrwt>
<totfact> 0.12859853E+06</totfact>
</mgrwt>
</event>
<event>
 5    1  0.1154861E-006  0.2000060E+02  0.7818608E-02  0.1745316E+00
         -4   -1    0    0    0  501 -0.00000000000E+00  0.00000000000E+00  0.49600682271E+01  0.51593291054E+01  0.14200000000E+01 0.  1.
          4   -1    0    0  501    0  0.00000000000E+00 -0.00000000000E+00 -0.19539679371E+02  0.19591208996E+02  0.14200000000E+01 0. -1.
       1023    2    1    2    0    0  0.00000000000E+00  0.00000000000E+00 -0.14579611144E+02  0.24750538101E+02  0.20000601871E+02 0.  0.
        -11    1    3    3    0    0 -0.86961858273E+01 -0.49374511352E+01 -0.73675498988E+01  0.12421065310E+02  0.51100000000E-03 0.  1.
         11    1    3    3    0    0  0.86961858273E+01  0.49374511352E+01 -0.72120612453E+01  0.12329472792E+02  0.51100000000E-03 0. -1.
<mgrwt>
<rscale>  0 0.20000602E+02</rscale>
<asrwt>0</asrwt>
<pdfrwt beam="2">  1        4 0.30253961E-02 0.20000602E+02</pdfrwt>
<pdfrwt beam="1">  1       -4 0.78237901E-03 0.20000602E+02</pdfrwt>
<totfact> 0.12738763E+06</totfact>
</mgrwt>
</event>
<event>
 5    1  0.1154861E-006  0.2000045E+02  0.7818608E-02  0.1745319E+00
          4   -1    0    0  501    0  0.00000000000E+00  0.00000000000E+00  0.39636776657E+01  0.42103611054E+01  0.14200000000E+01 0.  1.
         -4   -1    0    0    0  501 -0.00000000000E+00 -0.00000000000E+00 -0.24200681164E+02  0.24242305353E+02  0.14200000000E+01 0. -1.
       1023    2    1    2    0    0  0.00000000000E+00  0.00000000000E+00 -0.20237003499E+02  0.28452666458E+02  0.20000447944E+02 0.  0.
        -11    1    3    3    0    0  0.88929207778E+01 -0.45738846763E+01 -0.10112426253E+02  0.14222012023E+02  0.51100000000E-03 0. -1.
         11    1    3    3    0    0 -0.88929207778E+01  0.45738846763E+01 -0.10124577246E+02  0.14230654436E+02  0.51100000000E-03 0.  1.
<mgrwt>
<rscale>  0 0.20000448E+02</rscale>
<asrwt>0</asrwt>
<pdfrwt beam="1">  1        4 0.63197409E-03 0.20000448E+02</pdfrwt>
<pdfrwt beam="2">  1       -4 0.37453591E-02 0.20000448E+02</pdfrwt>
<totfact> 0.12536790E+06</totfact>
</mgrwt>
</event>
<event>
 5    1  0.1154861E-006  0.2000026E+02  0.7818608E-02  0.1745323E+00
         -4   -1    0    0    0  501 -0.00000000000E+00  0.00000000000E+00  0.14319142693E+02  0.14389379676E+02  0.14200000000E+01 0.  1.
          4   -1    0    0  501    0  0.00000000000E+00 -0.00000000000E+00 -0.68232399516E+01  0.69694335091E+01  0.14200000000E+01 0. -1.
       1023    2    1    2    0    0  0.00000000000E+00  0.00000000000E+00  0.74959027412E+01  0.21358813185E+02  0.20000258567E+02 0.  0.
        -11    1    3    3    0    0  0.99555257057E+01  0.94254960461E+00  0.37040026393E+01  0.10663982729E+02  0.51100000000E-03 0.  1.
         11    1    3    3    0    0 -0.99555257057E+01 -0.94254960461E+00  0.37919001019E+01  0.10694830456E+02  0.51100000000E-03 0. -1.
<mgrwt>
<rscale>  0 0.20000259E+02</rscale>
<asrwt>0</asrwt>
<pdfrwt beam="2">  1        4 0.10663777E-02 0.20000259E+02</pdfrwt>
<pdfrwt beam="1">  1       -4 0.22195935E-02 0.20000259E+02</pdfrwt>
<totfact> 0.12933296E+06</totfact>
</mgrwt>
</event>
<event>
 5    1  0.1154861E-006  0.2000072E+02  0.7818608E-02  0.1745314E+00
         -4   -1    0    0    0  501 -0.00000000000E+00  0.00000000000E+00  0.16095001934E+02  0.16157521074E+02  0.14200000000E+01 0. -1.
          4   -1    0    0  501    0  0.00000000000E+00 -0.00000000000E+00 -0.60567166850E+01  0.62209498473E+01  0.14200000000E+01 0.  1.
       1023    2    1    2    0    0  0.00000000000E+00  0.00000000000E+00  0.10038285249E+02  0.22378470921E+02  0.20000719738E+02 0.  0.
        -11    1    3    3    0    0 -0.97714294016E+01 -0.21267384233E+01  0.50838869605E+01  0.11218277754E+02  0.51100000000E-03 0. -1.
         11    1    3    3    0    0  0.97714294016E+01  0.21267384233E+01  0.49543982885E+01  0.11160193167E+02  0.51100000000E-03 0.  1.
<mgrwt>
<rscale>  0 0.20000720E+02</rscale>
<asrwt>0</asrwt>
<pdfrwt beam="2">  1        4 0.94924507E-03 0.20000720E+02</pdfrwt>
<pdfrwt beam="1">  1       -4 0.24935966E-02 0.20000720E+02</pdfrwt>
<totfact> 0.12873369E+06</totfact>
</mgrwt>
</event>
<event>
 5    1  0.1154861E-006  0.2000056E+02  0.7818608E-02  0.1745317E+00
          4   -1    0    0  501    0  0.00000000000E+00  0.00000000000E+00  0.39626055206E+02  0.39651489899E+02  0.14200000000E+01 0. -1.
         -4   -1    0    0    0  501 -0.00000000000E+00 -0.00000000000E+00 -0.22955764853E+01  0.26992723835E+01  0.14200000000E+01 0.  1.
       1023    2    1    2    0    0  0.00000000000E+00  0.00000000000E+00  0.37330478721E+02  0.42350762282E+02  0.20000560601E+02 0.  0.
        -11    1    3    3    0    0  0.99574675711E+01  0.92374137592E+00  0.18593517378E+02  0.21112161124E+02  0.51100000000E-03 0.  1.
         11    1    3    3    0    0 -0.99574675711E+01 -0.92374137592E+00  0.18736961343E+02  0.21238601159E+02  0.51100000000E-03 0. -1.
<mgrwt>
<rscale>  0 0.20000561E+02</rscale>
<asrwt>0</asrwt>
<pdfrwt beam="1">  1        4 0.61293262E-02 0.20000561E+02</pdfrwt>
<pdfrwt beam="2">  1       -4 0.38617566E-03 0.20000561E+02</pdfrwt>
<totfact> 0.11853905E+06</totfact>
</mgrwt>
</event>
<event>
 5    1  0.1154861E-006  0.2000054E+02  0.7818608E-02  0.1745317E+00
          4   -1    0    0  501    0  0.00000000000E+00  0.00000000000E+00  0.44441515100E+02  0.44464195308E+02  0.14200000000E+01 0.  1.
         -4   -1    0    0    0  501 -0.00000000000E+00 -0.00000000000E+00 -0.20005959901E+01  0.24533210788E+01  0.14200000000E+01 0. -1.
       1023    2    1    2    0    0  0.00000000000E+00  0.00000000000E+00  0.42440919110E+02  0.46917516387E+02  0.20000543218E+02 0.  0.
        -11    1    3    3    0    0  0.20289798179E+01 -0.97922720735E+01  0.21199408734E+02  0.23439715920E+02  0.51100000000E-03 0. -1.
         11    1    3    3    0    0 -0.20289798179E+01  0.97922720735E+01  0.21241510376E+02  0.23477800467E+02  0.51100000000E-03 0.  1.
<mgrwt>
<rscale>  0 0.20000543E+02</rscale>
<asrwt>0</asrwt>
<pdfrwt beam="1">  1        4 0.68737260E-02 0.20000543E+02</pdfrwt>
<pdfrwt beam="2">  1       -4 0.34435363E-03 0.20000543E+02</pdfrwt>
<totfact> 0.11651205E+06</totfact>
</mgrwt>
</event>
<event>
 4    1  0.1154861E-006  0.2023716E+02  0.7818608E-02  0.1740653E+00
          4   -1    0    0  501    0  0.00000000000E+00  0.00000000000E+00  0.60084234593E+01  0.61739414045E+01  0.14200000000E+01 0. -1.
         -4   -1    0    0    0  501 -0.00000000000E+00 -0.00000000000E+00 -0.16612617039E+02  0.16673195401E+02  0.14200000000E+01 0.  1.
        -11    1    1    2    0    0 -0.94651655134E+01  0.35196952021E+01 -0.45809054263E+01  0.11088837058E+02  0.51100000000E-03 0.  1.
         11    1    1    2    0    0  0.94651655134E+01 -0.35196952021E+01 -0.60232881531E+01  0.11758299747E+02  0.51100000000E-03 0. -1.
<mgrwt>
<rscale>  0 0.20237162E+02</rscale>
<asrwt>0</asrwt>
<pdfrwt beam="1">  1        4 0.94176487E-03 0.20237162E+02</pdfrwt>
<pdfrwt beam="2">  1       -4 0.25731792E-02 0.20237162E+02</pdfrwt>
<totfact> 0.12541803E+06</totfact>
</mgrwt>
</event>
<event>
 5    1  0.1165603E-006  0.2000332E+02  0.7818608E-02  0.1745262E+00
          4   -1    0    0  501    0  0.00000000000E+00  0.00000000000E+00  0.32926235524E+02  0.32956841259E+02  0.14200000000E+01 0. -1.
         -4   -1    0    0    0  501 -0.00000000000E+00 -0.00000000000E+00 -0.28383087578E+01  0.31737039251E+01  0.14200000000E+01 0.  1.
       1023    2    1    2    0    0  0.00000000000E+00  0.00000000000E+00  0.30087926766E+02  0.36130545184E+02  0.20003323679E+02 0.  0.
        -11    1    3    3    0    0  0.95096066456E+01  0.30932210903E+01  0.15370106318E+02  0.18336870064E+02  0.51100000000E-03 0. -1.
         11    1    3    3    0    0 -0.95096066456E+01 -0.30932210903E+01  0.14717820448E+02  0.17793675120E+02  0.51100000000E-03 0.  1.
<mgrwt>
<rscale>  0 0.20003324E+02</rscale>
<asrwt>0</asrwt>
<pdfrwt beam="1">  1        4 0.50937285E-02 0.20003324E+02</pdfrwt>
<pdfrwt beam="2">  1       -4 0.46481681E-03 0.20003324E+02</pdfrwt>
<totfact> 0.12142567E+06</totfact>
</mgrwt>
</event>
<event>
 5    1  0.1154861E-006  0.2000122E+02  0.7818608E-02  0.1745304E+00
          4   -1    0    0  501    0  0.00000000000E+00  0.00000000000E+00  0.62912818466E+02  0.62928841777E+02  0.14200000000E+01 0.  1.
         -4   -1    0    0    0  501 -0.00000000000E+00 -0.00000000000E+00 -0.12530457898E+01  0.18938119631E+01  0.14200000000E+01 0. -1.
       1023    2    1    2    0    0  0.00000000000E+00  0.00000000000E+00  0.61659772677E+02  0.64822653740E+02  0.20001221747E+02 0.  0.
        -11    1    3    3    0    0 -0.98209290106E+01  0.18869613198E+01  0.30929669598E+02  0.32506241421E+02  0.51100000000E-03 0. -1.
         11    1    3    3    0    0  0.98209290106E+01 -0.18869613198E+01  0.30730103079E+02  0.32316412319E+02  0.51100000000E-03 0.  1.
<mgrwt>
<rscale>  0 0.20001222E+02</rscale>
<asrwt>0</asrwt>
<pdfrwt beam="1">  1        4 0.97294156E-02 0.20001222E+02</pdfrwt>
<pdfrwt beam="2">  1       -4 0.24329859E-03 0.20001222E+02</pdfrwt>
<totfact> 0.10936153E+06</totfact>
</mgrwt>
</event>
<event>
 5    1  0.1154861E-006  0.2000337E+02  0.7818608E-02  0.1745261E+00
         -4   -1    0    0    0  501 -0.00000000000E+00  0.00000000000E+00  0.14755154931E+02  0.14823326112E+02  0.14200000000E+01 0.  1.
          4   -1    0    0  501    0  0.00000000000E+00 -0.00000000000E+00 -0.66203153763E+01  0.67708917937E+01  0.14200000000E+01 0. -1.
       1023    2    1    2    0    0  0.00000000000E+00  0.00000000000E+00  0.81348395545E+01  0.21594217906E+02  0.20003365527E+02 0.  0.
        -11    1    3    3    0    0 -0.18498390576E+01  0.98291258657E+01  0.40607638091E+01  0.10794601558E+02  0.51100000000E-03 0.  1.
         11    1    3    3    0    0  0.18498390576E+01 -0.98291258657E+01  0.40740757455E+01  0.10799616348E+02  0.51100000000E-03 0. -1.
<mgrwt>
<rscale>  0 0.20003366E+02</rscale>
<asrwt>0</asrwt>
<pdfrwt beam="2">  1        4 0.10353368E-02 0.20003366E+02</pdfrwt>
<pdfrwt beam="1">  1       -4 0.22868505E-02 0.20003366E+02</pdfrwt>
<totfact> 0.12915422E+06</totfact>
</mgrwt>
</event>
<event>
 5    1  0.1154861E-006  0.2000190E+02  0.7818608E-02  0.1745290E+00
          4   -1    0    0  501    0  0.00000000000E+00  0.00000000000E+00  0.37007613335E+02  0.37034846358E+02  0.14200000000E+01 0.  1.
         -4   -1    0    0    0  501 -0.00000000000E+00 -0.00000000000E+00 -0.24858715300E+01  0.28628582333E+01  0.14200000000E+01 0. -1.
       1023    2    1    2    0    0  0.00000000000E+00  0.00000000000E+00  0.34521741805E+02  0.39897704591E+02  0.20001904269E+02 0.  0.
        -11    1    3    3    0    0  0.24501349624E+01 -0.96953958554E+01  0.17506641411E+02  0.20161506786E+02  0.51100000000E-03 0.  1.
         11    1    3    3    0    0 -0.24501349624E+01  0.96953958554E+01  0.17015100393E+02  0.19736197805E+02  0.51100000000E-03 0. -1.
<mgrwt>
<rscale>  0 0.20001904E+02</rscale>
<asrwt>0</asrwt>
<pdfrwt beam="1">  1        4 0.57245727E-02 0.20001904E+02</pdfrwt>
<pdfrwt beam="2">  1       -4 0.41353560E-03 0.20001904E+02</pdfrwt>
<totfact> 0.11965067E+06</totfact>
</mgrwt>
</event>
<event>
 5    1  0.1154861E-006  0.2000029E+02  0.7818608E-02  0.1745322E+00
          4   -1    0    0  501    0  0.00000000000E+00  0.00000000000E+00  0.48217702594E+01  0.50265165308E+01  0.14200000000E+01 0.  1.
         -4   -1    0    0    0  501 -0.00000000000E+00 -0.00000000000E+00 -0.20078343300E+02  0.20128493974E+02  0.14200000000E+01 0. -1.
       1023    2    1    2    0    0  0.00000000000E+00  0.00000000000E+00 -0.15256573041E+02  0.25155010505E+02  0.20000288312E+02 0.  0.
        -11    1    3    3    0    0 -0.99041966461E+01  0.13814157768E+01 -0.76763794351E+01  0.12606673719E+02  0.51100000000E-03 0. -1.
         11    1    3    3    0    0  0.99041966461E+01 -0.13814157768E+01 -0.75801936055E+01  0.12548336787E+02  0.51100000000E-03 0.  1.
<mgrwt>
<rscale>  0 0.20000288E+02</rscale>
<asrwt>0</asrwt>
<pdfrwt beam="1">  1        4 0.76141828E-03 0.20000288E+02</pdfrwt>
<pdfrwt beam="2">  1       -4 0.31085833E-02 0.20000288E+02</pdfrwt>
<totfact> 0.12716580E+06</totfact>
</mgrwt>
</event>
<event>
 5    1  0.1180110E-006  0.2000099E+02  0.7818608E-02  0.1745308E+00
          4   -1    0    0  501    0  0.00000000000E+00  0.00000000000E+00  0.23262568322E+02  0.23305868037E+02  0.14200000000E+01 0. -1.
         -4   -1    0    0    0  501 -0.00000000000E+00 -0.00000000000E+00 -0.41332078828E+01  0.43703326421E+01  0.14200000000E+01 0.  1.
       1023    2    1    2    0    0  0.00000000000E+00  0.00000000000E+00  0.19129360440E+02  0.27676200679E+02  0.20000991305E+02 0.  0.
        -11    1    3    3    0    0  0.83111277409E+01  0.55610769670E+01  0.94298688570E+01  0.13744920817E+02  0.51100000000E-03 0.  1.
         11    1    3    3    0    0 -0.83111277409E+01 -0.55610769670E+01  0.96994915826E+01  0.13931279862E+02  0.51100000000E-03 0. -1.
<mgrwt>
<rscale>  0 0.20000991E+02</rscale>
<asrwt>0</asrwt>
<pdfrwt beam="1">  1        4 0.36004277E-02 0.20000991E+02</pdfrwt>
<pdfrwt beam="2">  1       -4 0.65744926E-03 0.20000991E+02</pdfrwt>
<totfact> 0.12577673E+06</totfact>
</mgrwt>
</event>
<event>
 5    1  0.1154861E-006  0.2000026E+02  0.7818608E-02  0.1745323E+00
          4   -1    0    0  501    0  0.00000000000E+00  0.00000000000E+00  0.56534618610E+01  0.58290677654E+01  0.14200000000E+01 0.  1.
         -4   -1    0    0    0  501 -0.00000000000E+00 -0.00000000000E+00 -0.17212919492E+02  0.17271392458E+02  0.14200000000E+01 0. -1.
       1023    2    1    2    0    0  0.00000000000E+00  0.00000000000E+00 -0.11559457631E+02  0.23100460224E+02  0.20000255044E+02 0.  0.
        -11    1    3    3    0    0  0.88122444558E+01 -0.47271319861E+01 -0.57410570674E+01  0.11530878790E+02  0.51100000000E-03 0.  1.
         11    1    3    3    0    0 -0.88122444558E+01  0.47271319861E+01 -0.58184005640E+01  0.11569581434E+02  0.51100000000E-03 0. -1.
<mgrwt>
<rscale>  0 0.20000255E+02</rscale>
<asrwt>0</asrwt>
<pdfrwt beam="1">  1        4 0.88776944E-03 0.20000255E+02</pdfrwt>
<pdfrwt beam="2">  1       -4 0.26661475E-02 0.20000255E+02</pdfrwt>
<totfact> 0.12832498E+06</totfact>
</mgrwt>
</event>
<event>
 5    1  0.1216212E-006  0.2000110E+02  0.7818608E-02  0.1745306E+00
         -4   -1    0    0    0  501 -0.00000000000E+00  0.00000000000E+00  0.10276469922E+02  0.10374113651E+02  0.14200000000E+01 0.  1.
          4   -1    0    0  501    0  0.00000000000E+00 -0.00000000000E+00 -0.95355572659E+01  0.96407080845E+01  0.14200000000E+01 0. -1.
       1023    2    1    2    0    0  0.00000000000E+00  0.00000000000E+00  0.74091265583E+00  0.20014821736E+02  0.20001103409E+02 0.  0.
        -11    1    3    3    0    0  0.15663542893E+01 -0.98769342882E+01  0.43163283416E+00  0.10009675512E+02  0.51100000000E-03 0. -1.
         11    1    3    3    0    0 -0.15663542893E+01  0.98769342882E+01  0.30927982167E+00  0.10005146224E+02  0.51100000000E-03 0.  1.
<mgrwt>
<rscale>  0 0.20001103E+02</rscale>
<asrwt>0</asrwt>
<pdfrwt beam="2">  1        4 0.14826084E-02 0.20001103E+02</pdfrwt>
<pdfrwt beam="1">  1       -4 0.15965949E-02 0.20001103E+02</pdfrwt>
<totfact> 0.13011699E+06</totfact>
</mgrwt>
</event>
<event>
 4    1  0.1154861E-006  0.2001384E+02  0.7818608E-02  0.1745053E+00
          4   -1    0    0  501    0  0.00000000000E+00  0.00000000000E+00  0.19384215788E+02  0.19436157587E+02  0.14200000000E+01 0.  1.
         -4   -1    0    0    0  501 -0.00000000000E+00 -0.00000000000E+00 -0.50082826958E+01  0.52056983740E+01  0.14200000000E+01 0. -1.
        -11    1    1    2    0    0  0.37143675107E+00  0.99988366693E+01  0.73775255525E+01  0.12431515738E+02  0.51100000000E-03 0. -1.
         11    1    1    2    0    0 -0.37143675107E+00 -0.99988366693E+01  0.69984075401E+01  0.12210340223E+02  0.51100000000E-03 0.  1.
<mgrwt>
<rscale>  0 0.20013836E+02</rscale>
<asrwt>0</asrwt>
<pdfrwt beam="1">  1        4 0.30013685E-02 0.20013836E+02</pdfrwt>
<pdfrwt beam="2">  1       -4 0.78968636E-03 0.20013836E+02</pdfrwt>
<totfact> 0.12727695E+06</totfact>
</mgrwt>
</event>
<event>
 5    1  0.1154861E-006  0.2000017E+02  0.7818608E-02  0.1745325E+00
          4   -1    0    0  501    0  0.00000000000E+00  0.00000000000E+00  0.24116029438E+02  0.24157799482E+02  0.14200000000E+01 0. -1.
         -4   -1    0    0    0  501 -0.00000000000E+00 -0.00000000000E+00 -0.39783096911E+01  0.42241387286E+01  0.14200000000E+01 0.  1.
       1023    2    1    2    0    0  0.00000000000E+00  0.00000000000E+00  0.20137719746E+02  0.28381938211E+02  0.20000166500E+02 0.  0.
        -11    1    3    3    0    0 -0.18100914840E+01 -0.98348932352E+01  0.10054070325E+02  0.14180475538E+02  0.51100000000E-03 0. -1.
         11    1    3    3    0    0  0.18100914840E+01  0.98348932352E+01  0.10083649421E+02  0.14201462673E+02  0.51100000000E-03 0.  1.
<mgrwt>
<rscale>  0 0.20000166E+02</rscale>
<asrwt>0</asrwt>
<pdfrwt beam="1">  1        4 0.37322813E-02 0.20000166E+02</pdfrwt>
<pdfrwt beam="2">  1       -4 0.63417066E-03 0.20000166E+02</pdfrwt>
<totfact> 0.12540919E+06</totfact>
</mgrwt>
</event>
<event>
 5    1  0.1154861E-006  0.2000075E+02  0.7818608E-02  0.1745313E+00
         -4   -1    0    0    0  501 -0.00000000000E+00  0.00000000000E+00  0.10712723388E+03  0.10713664471E+03  0.14200000000E+01 0. -1.
          4   -1    0    0  501    0  0.00000000000E+00 -0.00000000000E+00 -0.37853881039E+00  0.14695889327E+01  0.14200000000E+01 0.  1.
       1023    2    1    2    0    0  0.00000000000E+00  0.00000000000E+00  0.10674869507E+03  0.10860623364E+03  0.20000752137E+02 0.  0.
        -11    1    3    3    0    0  0.99143848079E+01 -0.13085487235E+01  0.53450246419E+02  0.54377717572E+02  0.51100000000E-03 0. -1.
         11    1    3    3    0    0 -0.99143848079E+01  0.13085487235E+01  0.53298448653E+02  0.54228516069E+02  0.51100000000E-03 0.  1.
<mgrwt>
<rscale>  0 0.20000752E+02</rscale>
<asrwt>0</asrwt>
<pdfrwt beam="2">  1        4 0.14288766E-03 0.20000752E+02</pdfrwt>
<pdfrwt beam="1">  1       -4 0.16565755E-01 0.20000752E+02</pdfrwt>
<totfact> 0.95620241E+05</totfact>
</mgrwt>
</event>
<event>
 5    1  0.1192864E-006  0.2000246E+02  0.7818608E-02  0.1745279E+00
         -4   -1    0    0    0  501 -0.00000000000E+00  0.00000000000E+00  0.35482236060E+02  0.35510638910E+02  0.14200000000E+01 0.  1.
          4   -1    0    0  501    0  0.00000000000E+00 -0.00000000000E+00 -0.26086834746E+01  0.29701228040E+01  0.14200000000E+01 0. -1.
       1023    2    1    2    0    0  0.00000000000E+00  0.00000000000E+00  0.32873552585E+02  0.38480761714E+02  0.20002463911E+02 0.  0.
        -11    1    3    3    0    0 -0.31556789906E+01  0.94890369973E+01  0.16737943899E+02  0.19497663944E+02  0.51100000000E-03 0.  1.
         11    1    3    3    0    0  0.31556789906E+01 -0.94890369973E+01  0.16135608685E+02  0.18983097770E+02  0.51100000000E-03 0. -1.
<mgrwt>
<rscale>  0 0.20002464E+02</rscale>
<asrwt>0</asrwt>
<pdfrwt beam="2">  1        4 0.43132380E-03 0.20002464E+02</pdfrwt>
<pdfrwt beam="1">  1       -4 0.54887931E-02 0.20002464E+02</pdfrwt>
<totfact> 0.12030915E+06</totfact>
</mgrwt>
</event>
<event>
 5    1  0.1154861E-006  0.2000032E+02  0.7818608E-02  0.1745322E+00
         -4   -1    0    0    0  501 -0.00000000000E+00  0.00000000000E+00  0.89623150382E+01  0.90741110222E+01  0.14200000000E+01 0.  1.
          4   -1    0    0  501    0  0.00000000000E+00 -0.00000000000E+00 -0.10931027105E+02  0.11022874107E+02  0.14200000000E+01 0. -1.
       1023    2    1    2    0    0  0.00000000000E+00  0.00000000000E+00 -0.19687120671E+01  0.20096985129E+02  0.20000324599E+02 0.  0.
        -11    1    3    3    0    0  0.93990628791E+01 -0.34144767369E+01 -0.10316084814E+01  0.10053121441E+02  0.51100000000E-03 0.  1.
         11    1    3    3    0    0 -0.93990628791E+01  0.34144767369E+01 -0.93710358575E+00  0.10043863688E+02  0.51100000000E-03 0. -1.
<mgrwt>
<rscale>  0 0.20000325E+02</rscale>
<asrwt>0</asrwt>
<pdfrwt beam="2">  1        4 0.16973613E-02 0.20000325E+02</pdfrwt>
<pdfrwt beam="1">  1       -4 0.13944825E-02 0.20000325E+02</pdfrwt>
<totfact> 0.13007860E+06</totfact>
</mgrwt>
</event>
<event>
 4    1  0.1154861E-006  0.2003426E+02  0.7818608E-02  0.1744648E+00
          4   -1    0    0  501    0  0.00000000000E+00  0.00000000000E+00  0.13928455155E+02  0.14000652235E+02  0.14200000000E+01 0.  1.
         -4   -1    0    0    0  501 -0.00000000000E+00 -0.00000000000E+00 -0.70422952863E+01  0.71840324957E+01  0.14200000000E+01 0. -1.
        -11    1    1    2    0    0  0.84962576699E+01 -0.52959361934E+01  0.37931212548E+01  0.10706124587E+02  0.51100000000E-03 0. -1.
         11    1    1    2    0    0 -0.84962576699E+01  0.52959361934E+01  0.30930386139E+01  0.10478560144E+02  0.51100000000E-03 0.  1.
<mgrwt>
<rscale>  0 0.20034262E+02</rscale>
<asrwt>0</asrwt>
<pdfrwt beam="1">  1        4 0.21592957E-02 0.20034262E+02</pdfrwt>
<pdfrwt beam="2">  1       -4 0.10998865E-02 0.20034262E+02</pdfrwt>
<totfact> 0.12898736E+06</totfact>
</mgrwt>
</event>
<event>
 5    1  0.1154861E-006  0.2000015E+02  0.7818608E-02  0.1745325E+00
         -4   -1    0    0    0  501 -0.00000000000E+00  0.00000000000E+00  0.11646403610E+02  0.11732651748E+02  0.14200000000E+01 0.  1.
          4   -1    0    0  501    0  0.00000000000E+00 -0.00000000000E+00 -0.84087998162E+01  0.85278552022E+01  0.14200000000E+01 0. -1.
       1023    2    1    2    0    0  0.00000000000E+00  0.00000000000E+00  0.32376037935E+01  0.20260506950E+02  0.20000151588E+02 0.  0.
        -11    1    3    3    0    0  0.96303264127E+01  0.26941137355E+01  0.16097416297E+01  0.10128805656E+02  0.51100000000E-03 0.  1.
         11    1    3    3    0    0 -0.96303264127E+01 -0.26941137355E+01  0.16278621638E+01  0.10131701294E+02  0.51100000000E-03 0. -1.
<mgrwt>
<rscale>  0 0.20000152E+02</rscale>
<asrwt>0</asrwt>
<pdfrwt beam="2">  1        4 0.13094541E-02 0.20000152E+02</pdfrwt>
<pdfrwt beam="1">  1       -4 0.18075470E-02 0.20000152E+02</pdfrwt>
<totfact> 0.12998337E+06</totfact>
</mgrwt>
</event>
<event>
 5    1  0.1154861E-006  0.2000025E+02  0.7818608E-02  0.1745323E+00
          4   -1    0    0  501    0  0.00000000000E+00  0.00000000000E+00  0.53306695809E+02  0.53325605652E+02  0.14200000000E+01 0.  1.
         -4   -1    0    0    0  501 -0.00000000000E+00 -0.00000000000E+00 -0.15851894730E+01  0.21281977505E+01  0.14200000000E+01 0. -1.
       1023    2    1    2    0    0  0.00000000000E+00  0.00000000000E+00  0.51721506336E+02  0.55453803402E+02  0.20000252350E+02 0.  0.
        -11    1    3    3    0    0 -0.20247382546E+01 -0.97930011133E+01  0.25834824882E+02  0.27702718509E+02  0.51100000000E-03 0. -1.
         11    1    3    3    0    0  0.20247382546E+01  0.97930011133E+01  0.25886681454E+02  0.27751084894E+02  0.51100000000E-03 0.  1.
<mgrwt>
<rscale>  0 0.20000252E+02</rscale>
<asrwt>0</asrwt>
<pdfrwt beam="1">  1        4 0.82442539E-02 0.20000252E+02</pdfrwt>
<pdfrwt beam="2">  1       -4 0.28709980E-03 0.20000252E+02</pdfrwt>
<totfact> 0.11296462E+06</totfact>
</mgrwt>
</event>
<event>
 5    1  0.1154861E-006  0.2000104E+02  0.7818608E-02  0.1745307E+00
          4   -1    0    0  501    0  0.00000000000E+00  0.00000000000E+00  0.11655722491E+03  0.11656587441E+03  0.14200000000E+01 0. -1.
         -4   -1    0    0    0  501 -0.00000000000E+00 -0.00000000000E+00 -0.25580926528E+00  0.14428577131E+01  0.14200000000E+01 0.  1.
       1023    2    1    2    0    0  0.00000000000E+00  0.00000000000E+00  0.11630141564E+03  0.11800873213E+03  0.20001039425E+02 0.  0.
        -11    1    3    3    0    0  0.22317535532E+01  0.97482685314E+01  0.58330732404E+02  0.59181786103E+02  0.51100000000E-03 0.  1.
         11    1    3    3    0    0 -0.22317535532E+01 -0.97482685314E+01  0.57970683237E+02  0.58826946024E+02  0.51100000000E-03 0. -1.
<mgrwt>
<rscale>  0 0.20001039E+02</rscale>
<asrwt>0</asrwt>
<pdfrwt beam="1">  1        4 0.18023859E-01 0.20001039E+02</pdfrwt>
<pdfrwt beam="2">  1       -4 0.13133202E-03 0.20001039E+02</pdfrwt>
<totfact> 0.93152849E+05</totfact>
</mgrwt>
</event>
<event>
 5    1  0.1154861E-006  0.2000040E+02  0.7818608E-02  0.1745320E+00
          4   -1    0    0  501    0  0.00000000000E+00  0.00000000000E+00  0.34295580368E+02  0.34324965153E+02  0.14200000000E+01 0.  1.
         -4   -1    0    0    0  501 -0.00000000000E+00 -0.00000000000E+00 -0.27105185465E+01  0.30599527432E+01  0.14200000000E+01 0. -1.
       1023    2    1    2    0    0  0.00000000000E+00  0.00000000000E+00  0.31585061821E+02  0.37384917896E+02  0.20000398892E+02 0.  0.
        -11    1    3    3    0    0 -0.87261983106E+01 -0.48841538665E+01  0.15699205992E+02  0.18613612357E+02  0.51100000000E-03 0.  1.
         11    1    3    3    0    0  0.87261983106E+01  0.48841538665E+01  0.15885855829E+02  0.18771305539E+02  0.51100000000E-03 0. -1.
<mgrwt>
<rscale>  0 0.20000399E+02</rscale>
<asrwt>0</asrwt>
<pdfrwt beam="1">  1        4 0.53053831E-02 0.20000399E+02</pdfrwt>
<pdfrwt beam="2">  1       -4 0.44614277E-03 0.20000399E+02</pdfrwt>
<totfact> 0.12085621E+06</totfact>
</mgrwt>
</event>
<event>
 4    1  0.1154861E-006  0.2006207E+02  0.7818608E-02  0.1744097E+00
         -4   -1    0    0    0  501 -0.00000000000E+00  0.00000000000E+00  0.41479159037E+02  0.41503458102E+02  0.14200000000E+01 0. -1.
          4   -1    0    0  501    0  0.00000000000E+00 -0.00000000000E+00 -0.21907909086E+01  0.26107402791E+01  0.14200000000E+01 0.  1.
        -11    1    1    2    0    0  0.37813217022E+01  0.92891931770E+01  0.19237817155E+02  0.21695186398E+02  0.51100000000E-03 0. -1.
         11    1    1    2    0    0 -0.37813217022E+01 -0.92891931770E+01  0.20050550974E+02  0.22419011983E+02  0.51100000000E-03 0.  1.
<mgrwt>
<rscale>  0 0.20062069E+02</rscale>
<asrwt>0</asrwt>
<pdfrwt beam="2">  1        4 0.37121778E-03 0.20062069E+02</pdfrwt>
<pdfrwt beam="1">  1       -4 0.64155809E-02 0.20062069E+02</pdfrwt>
<totfact> 0.11701607E+06</totfact>
</mgrwt>
</event>
<event>
 5    1  0.1154861E-006  0.2000021E+02  0.7818608E-02  0.1745324E+00
          4   -1    0    0  501    0  0.00000000000E+00  0.00000000000E+00  0.21989690069E+02  0.22035491130E+02  0.14200000000E+01 0. -1.
         -4   -1    0    0    0  501 -0.00000000000E+00 -0.00000000000E+00 -0.43849353695E+01  0.46091277043E+01  0.14200000000E+01 0.  1.
       1023    2    1    2    0    0  0.00000000000E+00  0.00000000000E+00  0.17604754700E+02  0.26644618834E+02  0.20000208119E+02 0.  0.
        -11    1    3    3    0    0  0.97764617609E+01  0.21030182952E+01  0.87839935856E+01  0.13310162812E+02  0.51100000000E-03 0.  1.
         11    1    3    3    0    0 -0.97764617609E+01 -0.21030182952E+01  0.88207611143E+01  0.13334456022E+02  0.51100000000E-03 0. -1.
<mgrwt>
<rscale>  0 0.20000208E+02</rscale>
<asrwt>0</asrwt>
<pdfrwt beam="1">  1        4 0.34037980E-02 0.20000208E+02</pdfrwt>
<pdfrwt beam="2">  1       -4 0.69537416E-03 0.20000208E+02</pdfrwt>
<totfact> 0.12634573E+06</totfact>
</mgrwt>
</event>
<event>
 5    1  0.1190122E-006  0.2000194E+02  0.7818608E-02  0.1745290E+00
          4   -1    0    0  501    0  0.00000000000E+00  0.00000000000E+00  0.14144078704E+02  0.14215180702E+02  0.14200000000E+01 0. -1.
         -4   -1    0    0    0  501 -0.00000000000E+00 -0.00000000000E+00 -0.69102572386E+01  0.70546477661E+01  0.14200000000E+01 0.  1.
       1023    2    1    2    0    0  0.00000000000E+00  0.00000000000E+00  0.72338214657E+01  0.21269828468E+02  0.20001935658E+02 0.  0.
        -11    1    3    3    0    0 -0.45807826752E+01  0.88896379449E+01  0.37239097376E+01  0.10671304358E+02  0.51100000000E-03 0. -1.
         11    1    3    3    0    0  0.45807826752E+01 -0.88896379449E+01  0.35099117281E+01  0.10598524110E+02  0.51100000000E-03 0.  1.
<mgrwt>
<rscale>  0 0.20001936E+02</rscale>
<asrwt>0</asrwt>
<pdfrwt beam="1">  1        4 0.21925884E-02 0.20001936E+02</pdfrwt>
<pdfrwt beam="2">  1       -4 0.10796929E-02 0.20001936E+02</pdfrwt>
<totfact> 0.12936306E+06</totfact>
</mgrwt>
</event>
<event>
 5    1  0.1154861E-006  0.2000457E+02  0.7818608E-02  0.1745237E+00
         -4   -1    0    0    0  501 -0.00000000000E+00  0.00000000000E+00  0.84269571875E+02  0.84281535012E+02  0.14200000000E+01 0. -1.
          4   -1    0    0  501    0  0.00000000000E+00 -0.00000000000E+00 -0.74615991658E+00  0.16041055517E+01  0.14200000000E+01 0.  1.
       1023    2    1    2    0    0  0.00000000000E+00  0.00000000000E+00  0.83523411958E+02  0.85885640564E+02  0.20004572224E+02 0.  0.
        -11    1    3    3    0    0 -0.92616437202E+01 -0.37767117699E+01  0.41485762743E+02  0.42674466685E+02  0.51100000000E-03 0. -1.
         11    1    3    3    0    0  0.92616437202E+01  0.37767117699E+01  0.42037649215E+02  0.43211173879E+02  0.51100000000E-03 0.  1.
<mgrwt>
<rscale>  0 0.20004572E+02</rscale>
<asrwt>0</asrwt>
<pdfrwt beam="2">  1        4 0.18170986E-03 0.20004572E+02</pdfrwt>
<pdfrwt beam="1">  1       -4 0.13031468E-01 0.20004572E+02</pdfrwt>
<totfact> 0.10218176E+06</totfact>
</mgrwt>
</event>
<event>
 5    1  0.1179962E-006  0.2000214E+02  0.7818608E-02  0.1745286E+00
         -4   -1    0    0    0  501 -0.00000000000E+00  0.00000000000E+00  0.16452934100E+02  0.16514098235E+02  0.14200000000E+01 0. -1.
          4   -1    0    0  501    0  0.00000000000E+00 -0.00000000000E+00 -0.59227192186E+01  0.60905667177E+01  0.14200000000E+01 0.  1.
       1023    2    1    2    0    0  0.00000000000E+00  0.00000000000E+00  0.10530214882E+02  0.22604664952E+02  0.20002136190E+02 0.  0.
        -11    1    3    3    0    0 -0.96476207245E+01  0.26352873273E+01  0.52581559152E+01  0.11299094160E+02  0.51100000000E-03 0.  1.
         11    1    3    3    0    0  0.96476207245E+01 -0.26352873273E+01  0.52720589663E+01  0.11305570793E+02  0.51100000000E-03 0. -1.
<mgrwt>
<rscale>  0 0.20002136E+02</rscale>
<asrwt>0</asrwt>
<pdfrwt beam="2">  1        4 0.92880386E-03 0.20002136E+02</pdfrwt>
<pdfrwt beam="1">  1       -4 0.25488369E-02 0.20002136E+02</pdfrwt>
<totfact> 0.12858469E+06</totfact>
</mgrwt>
</event>
<event>
 5    1  0.1154861E-006  0.2000276E+02  0.7818608E-02  0.1745273E+00
          4   -1    0    0  501    0  0.00000000000E+00  0.00000000000E+00  0.13782025395E+02  0.13854985528E+02  0.14200000000E+01 0.  1.
         -4   -1    0    0    0  501 -0.00000000000E+00 -0.00000000000E+00 -0.70951740348E+01  0.72358755229E+01  0.14200000000E+01 0. -1.
       1023    2    1    2    0    0  0.00000000000E+00  0.00000000000E+00  0.66868513604E+01  0.21090861051E+02  0.20002760779E+02 0.  0.
        -11    1    3    3    0    0  0.11544588256E+01 -0.99345117524E+01  0.33248463414E+01  0.10539539952E+02  0.51100000000E-03 0.  1.
         11    1    3    3    0    0 -0.11544588256E+01  0.99345117524E+01  0.33620050190E+01  0.10551321100E+02  0.51100000000E-03 0. -1.
<mgrwt>
<rscale>  0 0.20002761E+02</rscale>
<asrwt>0</asrwt>
<pdfrwt beam="1">  1        4 0.21367471E-02 0.20002761E+02</pdfrwt>
<pdfrwt beam="2">  1       -4 0.11080008E-02 0.20002761E+02</pdfrwt>
<totfact> 0.12945745E+06</totfact>
</mgrwt>
</event>
<event>
 5    1  0.1184899E-006  0.2000075E+02  0.7818608E-02  0.1745313E+00
          4   -1    0    0  501    0  0.00000000000E+00  0.00000000000E+00  0.10519262916E+02  0.10614673442E+02  0.14200000000E+01 0.  1.
         -4   -1    0    0    0  501 -0.00000000000E+00 -0.00000000000E+00 -0.93147006708E+01  0.94223165191E+01  0.14200000000E+01 0. -1.
       1023    2    1    2    0    0  0.00000000000E+00  0.00000000000E+00  0.12045622449E+01  0.20036989962E+02  0.20000749899E+02 0.  0.
        -11    1    3    3    0    0 -0.54301725518E+01 -0.83975184022E+01  0.55310438940E+00  0.10015538627E+02  0.51100000000E-03 0. -1.
         11    1    3    3    0    0  0.54301725518E+01  0.83975184022E+01  0.65145785545E+00  0.10021451335E+02  0.51100000000E-03 0.  1.
<mgrwt>
<rscale>  0 0.20000750E+02</rscale>
<asrwt>0</asrwt>
<pdfrwt beam="1">  1        4 0.16339655E-02 0.20000750E+02</pdfrwt>
<pdfrwt beam="2">  1       -4 0.14486483E-02 0.20000750E+02</pdfrwt>
<totfact> 0.13010853E+06</totfact>
</mgrwt>
</event>
<event>
 5    1  0.1154861E-006  0.2000055E+02  0.7818608E-02  0.1745317E+00
          4   -1    0    0  501    0  0.00000000000E+00  0.00000000000E+00  0.15965250389E+02  0.16028275639E+02  0.14200000000E+01 0.  1.
         -4   -1    0    0    0  501 -0.00000000000E+00 -0.00000000000E+00 -0.61069640511E+01  0.62698811729E+01  0.14200000000E+01 0. -1.
       1023    2    1    2    0    0  0.00000000000E+00  0.00000000000E+00  0.98582863376E+01  0.22298156812E+02  0.20000549685E+02 0.  0.
        -11    1    3    3    0    0 -0.97055934827E+01  0.24096873518E+01  0.49502577375E+01  0.11158413414E+02  0.51100000000E-03 0. -1.
         11    1    3    3    0    0  0.97055934827E+01 -0.24096873518E+01  0.49080286001E+01  0.11139743399E+02  0.51100000000E-03 0.  1.
<mgrwt>
<rscale>  0 0.20000550E+02</rscale>
<asrwt>0</asrwt>
<pdfrwt beam="1">  1        4 0.24735725E-02 0.20000550E+02</pdfrwt>
<pdfrwt beam="2">  1       -4 0.95691314E-03 0.20000550E+02</pdfrwt>
<totfact> 0.12878234E+06</totfact>
</mgrwt>
</event>
<event>
 5    1  0.1154861E-006  0.2000061E+02  0.7818608E-02  0.1745316E+00
          4   -1    0    0  501    0  0.00000000000E+00  0.00000000000E+00  0.81197251502E+01  0.82429567823E+01  0.14200000000E+01 0. -1.
         -4   -1    0    0    0  501 -0.00000000000E+00 -0.00000000000E+00 -0.12058468872E+02  0.12141790294E+02  0.14200000000E+01 0.  1.
       1023    2    1    2    0    0  0.00000000000E+00  0.00000000000E+00 -0.39387437218E+01  0.20384747076E+02  0.20000605272E+02 0.  0.
        -11    1    3    3    0    0 -0.87780039887E+01 -0.47907964928E+01 -0.20010737553E+01  0.10198498983E+02  0.51100000000E-03 0. -1.
         11    1    3    3    0    0  0.87780039887E+01  0.47907964928E+01 -0.19376699665E+01  0.10186248094E+02  0.51100000000E-03 0.  1.
<mgrwt>
<rscale>  0 0.20000605E+02</rscale>
<asrwt>0</asrwt>
<pdfrwt beam="1">  1        4 0.12650772E-02 0.20000605E+02</pdfrwt>
<pdfrwt beam="2">  1       -4 0.18710378E-02 0.20000605E+02</pdfrwt>
<totfact> 0.12990351E+06</totfact>
</mgrwt>
</event>
<event>
 5    1  0.1165618E-006  0.2000179E+02  0.7818608E-02  0.1745293E+00
         -4   -1    0    0    0  501 -0.00000000000E+00  0.00000000000E+00  0.49194231452E+01  0.51202660167E+01  0.14200000000E+01 0.  1.
          4   -1    0    0  501    0  0.00000000000E+00 -0.00000000000E+00 -0.19697584511E+02  0.19748702124E+02  0.14200000000E+01 0. -1.
       1023    2    1    2    0    0  0.00000000000E+00  0.00000000000E+00 -0.14778161366E+02  0.24868968140E+02  0.20001787995E+02 0.  0.
        -11    1    3    3    0    0  0.23691371647E+01 -0.97161984996E+01 -0.73597552552E+01  0.12417057698E+02  0.51100000000E-03 0.  1.
         11    1    3    3    0    0 -0.23691371647E+01  0.97161984996E+01 -0.74184061106E+01  0.12451910443E+02  0.51100000000E-03 0. -1.
<mgrwt>
<rscale>  0 0.20001788E+02</rscale>
<asrwt>0</asrwt>
<pdfrwt beam="2">  1        4 0.30497792E-02 0.20001788E+02</pdfrwt>
<pdfrwt beam="1">  1       -4 0.77621592E-03 0.20001788E+02</pdfrwt>
<totfact> 0.12730598E+06</totfact>
</mgrwt>
</event>
<event>
 5    1  0.1154861E-006  0.2000795E+02  0.7818608E-02  0.1745170E+00
         -4   -1    0    0    0  501 -0.00000000000E+00  0.00000000000E+00  0.31444777005E+02  0.31476823234E+02  0.14200000000E+01 0. -1.
          4   -1    0    0  501    0  0.00000000000E+00 -0.00000000000E+00 -0.29888732531E+01  0.33090426596E+01  0.14200000000E+01 0.  1.
       1023    2    1    2    0    0  0.00000000000E+00  0.00000000000E+00  0.28455903752E+02  0.34785865893E+02  0.20007948611E+02 0.  0.
        -11    1    3    3    0    0  0.96869254214E+01  0.24979423330E+01  0.14327244517E+02  0.17474157368E+02  0.51100000000E-03 0.  1.
         11    1    3    3    0    0 -0.96869254214E+01 -0.24979423330E+01  0.14128659234E+02  0.17311708525E+02  0.51100000000E-03 0. -1.
<mgrwt>
<rscale>  0 0.20007949E+02</rscale>
<asrwt>0</asrwt>
<pdfrwt beam="2">  1        4 0.48692016E-03 0.20007949E+02</pdfrwt>
<pdfrwt beam="1">  1       -4 0.48647516E-02 0.20007949E+02</pdfrwt>
<totfact> 0.12202714E+06</totfact>
</mgrwt>
</event>
<event>
 4    1  0.1154861E-006  0.2001461E+02  0.7818608E-02  0.1745038E+00
          4   -1    0    0  501    0  0.00000000000E+00  0.00000000000E+00  0.17863505910E+02  0.17919856121E+02  0.14200000000E+01 0. -1.
         -4   -1    0    0    0  501 -0.00000000000E+00 -0.00000000000E+00 -0.54498862152E+01  0.56318433713E+01  0.14200000000E+01 0.  1.
        -11    1    1    2    0    0  0.98329824972E+01  0.18242007056E+01  0.57810766835E+01  0.11551454492E+02  0.51100000000E-03 0.  1.
         11    1    1    2    0    0 -0.98329824972E+01 -0.18242007056E+01  0.66325430113E+01  0.12000245000E+02  0.51100000000E-03 0. -1.
<mgrwt>
<rscale>  0 0.20014610E+02</rscale>
<asrwt>0</asrwt>
<pdfrwt beam="1">  1        4 0.27665630E-02 0.20014610E+02</pdfrwt>
<pdfrwt beam="2">  1       -4 0.85677537E-03 0.20014610E+02</pdfrwt>
<totfact> 0.12788084E+06</totfact>
</mgrwt>
</event>
<event>
 5    1  0.1154861E-006  0.2000030E+02  0.7818608E-02  0.1745322E+00
         -4   -1    0    0    0  501 -0.00000000000E+00  0.00000000000E+00  0.11288721732E+01  0.18140431041E+01  0.14200000000E+01 0.  1.
          4   -1    0    0  501    0  0.00000000000E+00 -0.00000000000E+00 -0.67267445889E+02  0.67282432153E+02  0.14200000000E+01 0. -1.
       1023    2    1    2    0    0  0.00000000000E+00  0.00000000000E+00 -0.66138573716E+02  0.69096475257E+02  0.20000298993E+02 0.  0.
        -11    1    3    3    0    0  0.97933344859E+01  0.20232296811E+01 -0.33029746007E+02  0.34510389453E+02  0.51100000000E-03 0. -1.
         11    1    3    3    0    0 -0.97933344859E+01 -0.20232296811E+01 -0.33108827709E+02  0.34586085804E+02  0.51100000000E-03 0.  1.
<mgrwt>
<rscale>  0 0.20000299E+02</rscale>
<asrwt>0</asrwt>
<pdfrwt beam="2">  1        4 0.10402694E-01 0.20000299E+02</pdfrwt>
<pdfrwt beam="1">  1       -4 0.22753094E-03 0.20000299E+02</pdfrwt>
<totfact> 0.10782491E+06</totfact>
</mgrwt>
</event>
<event>
 5    1  0.1154861E-006  0.2000167E+02  0.7818608E-02  0.1745295E+00
          4   -1    0    0  501    0  0.00000000000E+00  0.00000000000E+00  0.21043328629E+01  0.25386249818E+01  0.14200000000E+01 0.  1.
         -4   -1    0    0    0  501 -0.00000000000E+00 -0.00000000000E+00 -0.42635949389E+02  0.42659589547E+02  0.14200000000E+01 0. -1.
       1023    2    1    2    0    0  0.00000000000E+00  0.00000000000E+00 -0.40531616526E+02  0.45198214529E+02  0.20001666389E+02 0.  0.
        -11    1    3    3    0    0  0.73321434281E+01 -0.68010827023E+01 -0.20175104857E+02  0.22517768749E+02  0.51100000000E-03 0. -1.
         11    1    3    3    0    0 -0.73321434281E+01  0.68010827023E+01 -0.20356511669E+02  0.22680445780E+02  0.51100000000E-03 0.  1.
<mgrwt>
<rscale>  0 0.20001666E+02</rscale>
<asrwt>0</asrwt>
<pdfrwt beam="1">  1        4 0.35896911E-03 0.20001666E+02</pdfrwt>
<pdfrwt beam="2">  1       -4 0.65946018E-02 0.20001666E+02</pdfrwt>
<totfact> 0.11725078E+06</totfact>
</mgrwt>
</event>
<event>
 5    1  0.1154861E-006  0.2000278E+02  0.7818608E-02  0.1745273E+00
          4   -1    0    0  501    0  0.00000000000E+00  0.00000000000E+00  0.89559422983E+02  0.89570679606E+02  0.14200000000E+01 0.  1.
         -4   -1    0    0    0  501 -0.00000000000E+00 -0.00000000000E+00 -0.64955323618E+00  0.15615118977E+01  0.14200000000E+01 0. -1.
       1023    2    1    2    0    0  0.00000000000E+00  0.00000000000E+00  0.88909869747E+02  0.91132191503E+02  0.20002784552E+02 0.  0.
        -11    1    3    3    0    0  0.22036667744E+01 -0.97555978964E+01  0.44469073007E+02  0.45579889117E+02  0.51100000000E-03 0.  1.
         11    1    3    3    0    0 -0.22036667744E+01  0.97555978964E+01  0.44440796740E+02  0.45552302387E+02  0.51100000000E-03 0. -1.
<mgrwt>
<rscale>  0 0.20002785E+02</rscale>
<asrwt>0</asrwt>
<pdfrwt beam="1">  1        4 0.13849387E-01 0.20002785E+02</pdfrwt>
<pdfrwt beam="2">  1       -4 0.17094785E-03 0.20002785E+02</pdfrwt>
<totfact> 0.10058558E+06</totfact>
</mgrwt>
</event>
<event>
 5    1  0.1154861E-006  0.2000501E+02  0.7818608E-02  0.1745229E+00
          4   -1    0    0  501    0  0.00000000000E+00  0.00000000000E+00  0.54293257226E+02  0.54311823577E+02  0.14200000000E+01 0.  1.
         -4   -1    0    0    0  501 -0.00000000000E+00 -0.00000000000E+00 -0.15474488605E+01  0.21002375998E+01  0.14200000000E+01 0. -1.
       1023    2    1    2    0    0  0.00000000000E+00  0.00000000000E+00  0.52745808366E+02  0.56412061177E+02  0.20005008024E+02 0.  0.
        -11    1    3    3    0    0 -0.47706024223E+01 -0.87908519691E+01  0.26059395136E+02  0.27912896678E+02  0.51100000000E-03 0. -1.
         11    1    3    3    0    0  0.47706024223E+01  0.87908519691E+01  0.26686413230E+02  0.28499164499E+02  0.51100000000E-03 0.  1.
<mgrwt>
<rscale>  0 0.20005008E+02</rscale>
<asrwt>0</asrwt>
<pdfrwt beam="1">  1        4 0.83967591E-02 0.20005008E+02</pdfrwt>
<pdfrwt beam="2">  1       -4 0.28201945E-03 0.20005008E+02</pdfrwt>
<totfact> 0.11252973E+06</totfact>
</mgrwt>
</event>
<event>
 5    1  0.1154861E-006  0.2000039E+02  0.7818608E-02  0.1745320E+00
          4   -1    0    0  501    0  0.00000000000E+00  0.00000000000E+00  0.41142702233E+02  0.41167199893E+02  0.14200000000E+01 0.  1.
         -4   -1    0    0    0  501 -0.00000000000E+00 -0.00000000000E+00 -0.21958048838E+01  0.26149491558E+01  0.14200000000E+01 0. -1.
       1023    2    1    2    0    0  0.00000000000E+00  0.00000000000E+00  0.38946897349E+02  0.43782149049E+02  0.20000394051E+02 0.  0.
        -11    1    3    3    0    0  0.99548472362E+01 -0.95051022298E+00  0.19389031645E+02  0.21815980417E+02  0.51100000000E-03 0. -1.
         11    1    3    3    0    0 -0.99548472362E+01  0.95051022298E+00  0.19557865704E+02  0.21966168631E+02  0.51100000000E-03 0.  1.
<mgrwt>
<rscale>  0 0.20000394E+02</rscale>
<asrwt>0</asrwt>
<pdfrwt beam="1">  1        4 0.63637724E-02 0.20000394E+02</pdfrwt>
<pdfrwt beam="2">  1       -4 0.37194246E-03 0.20000394E+02</pdfrwt>
<totfact> 0.11789530E+06</totfact>
</mgrwt>
</event>
<event>
 5    1  0.1154861E-006  0.2000074E+02  0.7818608E-02  0.1745313E+00
          4   -1    0    0  501    0  0.00000000000E+00  0.00000000000E+00  0.10740301880E+03  0.10741240546E+03  0.14200000000E+01 0.  1.
         -4   -1    0    0    0  501 -0.00000000000E+00 -0.00000000000E+00 -0.37476002849E+00  0.14686201275E+01  0.14200000000E+01 0. -1.
       1023    2    1    2    0    0  0.00000000000E+00  0.00000000000E+00  0.10702825877E+03  0.10888102559E+03  0.20000738936E+02 0.  0.
        -11    1    3    3    0    0  0.87580284896E+01  0.48269830638E+01  0.53881769180E+02  0.54801896671E+02  0.51100000000E-03 0.  1.
         11    1    3    3    0    0 -0.87580284896E+01 -0.48269830638E+01  0.53146489590E+02  0.54079128918E+02  0.51100000000E-03 0. -1.
<mgrwt>
<rscale>  0 0.20000739E+02</rscale>
<asrwt>0</asrwt>
<pdfrwt beam="1">  1        4 0.16608408E-01 0.20000739E+02</pdfrwt>
<pdfrwt beam="2">  1       -4 0.14252051E-03 0.20000739E+02</pdfrwt>
<totfact> 0.95546283E+05</totfact>
</mgrwt>
</event>
<event>
 5    1  0.1154861E-006  0.2000049E+02  0.7818608E-02  0.1745318E+00
         -4   -1    0    0    0  501 -0.00000000000E+00  0.00000000000E+00  0.19086413075E+02  0.19139163097E+02  0.14200000000E+01 0. -1.
          4   -1    0    0  501    0  0.00000000000E+00 -0.00000000000E+00 -0.50821442585E+01  0.52767973491E+01  0.14200000000E+01 0.  1.
       1023    2    1    2    0    0  0.00000000000E+00  0.00000000000E+00  0.14004268816E+02  0.24415960446E+02  0.20000489480E+02 0.  0.
        -11    1    3    3    0    0  0.17963208510E+00  0.99986220992E+01  0.70186499165E+01  0.12217453028E+02  0.51100000000E-03 0. -1.
         11    1    3    3    0    0 -0.17963208510E+00 -0.99986220992E+01  0.69856188996E+01  0.12198507419E+02  0.51100000000E-03 0.  1.
<mgrwt>
<rscale>  0 0.20000489E+02</rscale>
<asrwt>0</asrwt>
<pdfrwt beam="2">  1        4 0.80089936E-03 0.20000489E+02</pdfrwt>
<pdfrwt beam="1">  1       -4 0.29554022E-02 0.20000489E+02</pdfrwt>
<totfact> 0.12757691E+06</totfact>
</mgrwt>
</event>
<event>
 4    1  0.1154861E-006  0.2002032E+02  0.7818608E-02  0.1744924E+00
          4   -1    0    0  501    0  0.00000000000E+00  0.00000000000E+00  0.34637822300E+01  0.37435527694E+01  0.14200000000E+01 0.  1.
         -4   -1    0    0    0  501 -0.00000000000E+00 -0.00000000000E+00 -0.27507118572E+02  0.27543746516E+02  0.14200000000E+01 0. -1.
        -11    1    1    2    0    0 -0.99668489295E+01  0.84348420922E+00 -0.12634398661E+02  0.16114514357E+02  0.51100000000E-03 0. -1.
         11    1    1    2    0    0  0.99668489295E+01 -0.84348420922E+00 -0.11408937681E+02  0.15172784928E+02  0.51100000000E-03 0.  1.
<mgrwt>
<rscale>  0 0.20020317E+02</rscale>
<asrwt>0</asrwt>
<pdfrwt beam="1">  1        4 0.55722794E-03 0.20020317E+02</pdfrwt>
<pdfrwt beam="2">  1       -4 0.42562026E-02 0.20020317E+02</pdfrwt>
<totfact> 0.12363501E+06</totfact>
</mgrwt>
</event>
<event>
 5    1  0.1154861E-006  0.2000082E+02  0.7818608E-02  0.1745312E+00
          4   -1    0    0  501    0  0.00000000000E+00  0.00000000000E+00  0.88992726728E+02  0.89004055023E+02  0.14200000000E+01 0. -1.
         -4   -1    0    0    0  501 -0.00000000000E+00 -0.00000000000E+00 -0.65916634202E+00  0.15655351374E+01  0.14200000000E+01 0.  1.
       1023    2    1    2    0    0  0.00000000000E+00  0.00000000000E+00  0.88333560386E+02  0.90569590160E+02  0.20000819266E+02 0.  0.
        -11    1    3    3    0    0  0.90708442768E+01  0.42103908058E+01  0.44057168072E+02  0.45177889121E+02  0.51100000000E-03 0. -1.
         11    1    3    3    0    0 -0.90708442768E+01 -0.42103908058E+01  0.44276392314E+02  0.45391701039E+02  0.51100000000E-03 0.  1.
<mgrwt>
<rscale>  0 0.20000819E+02</rscale>
<asrwt>0</asrwt>
<pdfrwt beam="1">  1        4 0.13761786E-01 0.20000819E+02</pdfrwt>
<pdfrwt beam="2">  1       -4 0.17200223E-03 0.20000819E+02</pdfrwt>
<totfact> 0.10077565E+06</totfact>
</mgrwt>
</event>
<event>
 5    1  0.1154861E-006  0.2000015E+02  0.7818608E-02  0.1745325E+00
          4   -1    0    0  501    0  0.00000000000E+00  0.00000000000E+00  0.34356409360E+01  0.37175299112E+01  0.14200000000E+01 0.  1.
         -4   -1    0    0    0  501 -0.00000000000E+00 -0.00000000000E+00 -0.27659230043E+02  0.27695656818E+02  0.14200000000E+01 0. -1.
       1023    2    1    2    0    0  0.00000000000E+00  0.00000000000E+00 -0.24223589107E+02  0.31413186729E+02  0.20000150781E+02 0.  0.
        -11    1    3    3    0    0 -0.64473150060E+01  0.76441766691E+01 -0.12089592541E+02  0.15689472770E+02  0.51100000000E-03 0. -1.
         11    1    3    3    0    0  0.64473150060E+01 -0.76441766691E+01 -0.12133996566E+02  0.15723713959E+02  0.51100000000E-03 0.  1.
<mgrwt>
<rscale>  0 0.20000151E+02</rscale>
<asrwt>0</asrwt>
<pdfrwt beam="1">  1        4 0.55304599E-03 0.20000151E+02</pdfrwt>
<pdfrwt beam="2">  1       -4 0.42797519E-02 0.20000151E+02</pdfrwt>
<totfact> 0.12382352E+06</totfact>
</mgrwt>
</event>
<event>
 5    1  0.1154861E-006  0.2000089E+02  0.7818608E-02  0.1745310E+00
         -4   -1    0    0    0  501 -0.00000000000E+00  0.00000000000E+00  0.82338398485E+02  0.82350642165E+02  0.14200000000E+01 0. -1.
          4   -1    0    0  501    0  0.00000000000E+00 -0.00000000000E+00 -0.78294433042E+00  0.16215430381E+01  0.14200000000E+01 0.  1.
       1023    2    1    2    0    0  0.00000000000E+00  0.00000000000E+00  0.81555454154E+02  0.83972185203E+02  0.20000894618E+02 0.  0.
        -11    1    3    3    0    0  0.76771148222E+01  0.64086466641E+01  0.40820141422E+02  0.42027286256E+02  0.51100000000E-03 0.  1.
         11    1    3    3    0    0 -0.76771148222E+01 -0.64086466641E+01  0.40735312732E+02  0.41944898947E+02  0.51100000000E-03 0. -1.
<mgrwt>
<rscale>  0 0.20000895E+02</rscale>
<asrwt>0</asrwt>
<pdfrwt beam="2">  1        4 0.18590237E-03 0.20000895E+02</pdfrwt>
<pdfrwt beam="1">  1       -4 0.12732897E-01 0.20000895E+02</pdfrwt>
<totfact> 0.10282288E+06</totfact>
</mgrwt>
</event>
<event>
 5    1  0.1154861E-006  0.2000024E+02  0.7818608E-02  0.1745323E+00
          4   -1    0    0  501    0  0.00000000000E+00  0.00000000000E+00  0.26297163485E+01  0.29886130685E+01  0.14200000000E+01 0. -1.
         -4   -1    0    0    0  501 -0.00000000000E+00 -0.00000000000E+00 -0.35224525862E+02  0.35253136346E+02  0.14200000000E+01 0.  1.
       1023    2    1    2    0    0  0.00000000000E+00  0.00000000000E+00 -0.32594809514E+02  0.38241749414E+02  0.20000244774E+02 0.  0.
        -11    1    3    3    0    0 -0.15893220649E+01 -0.98730018872E+01 -0.16332485146E+02  0.19150774977E+02  0.51100000000E-03 0.  1.
         11    1    3    3    0    0  0.15893220649E+01  0.98730018872E+01 -0.16262324367E+02  0.19090974438E+02  0.51100000000E-03 0. -1.
<mgrwt>
<rscale>  0 0.20000245E+02</rscale>
<asrwt>0</asrwt>
<pdfrwt beam="1">  1        4 0.43438002E-03 0.20000245E+02</pdfrwt>
<pdfrwt beam="2">  1       -4 0.54489658E-02 0.20000245E+02</pdfrwt>
<totfact> 0.12044947E+06</totfact>
</mgrwt>
</event>
<event>
 5    1  0.1154861E-006  0.2000065E+02  0.7818608E-02  0.1745315E+00
          4   -1    0    0  501    0  0.00000000000E+00  0.00000000000E+00  0.28139576219E+01  0.31519450341E+01  0.14200000000E+01 0. -1.
         -4   -1    0    0    0  501 -0.00000000000E+00 -0.00000000000E+00 -0.33171989801E+02  0.33202369002E+02  0.14200000000E+01 0.  1.
       1023    2    1    2    0    0  0.00000000000E+00  0.00000000000E+00 -0.30358032179E+02  0.36354314036E+02  0.20000650771E+02 0.  0.
        -11    1    3    3    0    0 -0.90160674697E+01  0.43258750422E+01 -0.15291652939E+02  0.18271215542E+02  0.51100000000E-03 0.  1.
         11    1    3    3    0    0  0.90160674697E+01 -0.43258750422E+01 -0.15066379239E+02  0.18083098494E+02  0.51100000000E-03 0. -1.
<mgrwt>
<rscale>  0 0.20000651E+02</rscale>
<asrwt>0</asrwt>
<pdfrwt beam="1">  1        4 0.46125247E-03 0.20000651E+02</pdfrwt>
<pdfrwt beam="2">  1       -4 0.51317187E-02 0.20000651E+02</pdfrwt>
<totfact> 0.12134992E+06</totfact>
</mgrwt>
</event>
<event>
 5    1  0.1190749E-006  0.2000218E+02  0.7818608E-02  0.1745285E+00
         -4   -1    0    0    0  501 -0.00000000000E+00  0.00000000000E+00  0.10068668070E+02  0.10168307465E+02  0.14200000000E+01 0.  1.
          4   -1    0    0  501    0  0.00000000000E+00 -0.00000000000E+00 -0.97336416991E+01  0.98366752883E+01  0.14200000000E+01 0. -1.
       1023    2    1    2    0    0  0.00000000000E+00  0.00000000000E+00  0.33502637127E+00  0.20004982754E+02  0.20002177189E+02 0.  0.
        -11    1    3    3    0    0  0.99913950992E+01 -0.43016621430E+00  0.26108812807E+00  0.10004058490E+02  0.51100000000E-03 0.  1.
         11    1    3    3    0    0 -0.99913950992E+01  0.43016621430E+00  0.73938243198E-01  0.10000924264E+02  0.51100000000E-03 0. -1.
<mgrwt>
<rscale>  0 0.20002177E+02</rscale>
<asrwt>0</asrwt>
<pdfrwt beam="2">  1        4 0.15130736E-02 0.20002177E+02</pdfrwt>
<pdfrwt beam="1">  1       -4 0.15646161E-02 0.20002177E+02</pdfrwt>
<totfact> 0.13010857E+06</totfact>
</mgrwt>
</event>
<event>
 5    1  0.1154861E-006  0.2000043E+02  0.7818608E-02  0.1745320E+00
         -4   -1    0    0    0  501 -0.00000000000E+00  0.00000000000E+00  0.54440203226E+02  0.54458719479E+02  0.14200000000E+01 0. -1.
          4   -1    0    0  501    0  0.00000000000E+00 -0.00000000000E+00 -0.15408109755E+01  0.20953516321E+01  0.14200000000E+01 0.  1.
       1023    2    1    2    0    0  0.00000000000E+00  0.00000000000E+00  0.52899392250E+02  0.56554071111E+02  0.20000431465E+02 0.  0.
        -11    1    3    3    0    0  0.68985519252E+01 -0.72397094457E+01  0.26364729913E+02  0.28197560093E+02  0.51100000000E-03 0. -1.
         11    1    3    3    0    0 -0.68985519252E+01  0.72397094457E+01  0.26534662337E+02  0.28356511018E+02  0.51100000000E-03 0.  1.
<mgrwt>
<rscale>  0 0.20000431E+02</rscale>
<asrwt>0</asrwt>
<pdfrwt beam="2">  1        4 0.28112913E-03 0.20000431E+02</pdfrwt>
<pdfrwt beam="1">  1       -4 0.84194975E-02 0.20000431E+02</pdfrwt>
<totfact> 0.11252541E+06</totfact>
</mgrwt>
</event>
<event>
 5    1  0.1154861E-006  0.2000182E+02  0.7818608E-02  0.1745292E+00
         -4   -1    0    0    0  501 -0.00000000000E+00  0.00000000000E+00  0.20674430877E+01  0.25081309617E+01  0.14200000000E+01 0. -1.
          4   -1    0    0  501    0  0.00000000000E+00 -0.00000000000E+00 -0.43264854004E+02  0.43288150711E+02  0.14200000000E+01 0.  1.
       1023    2    1    2    0    0  0.00000000000E+00  0.00000000000E+00 -0.41197410916E+02  0.45796281673E+02  0.20001818638E+02 0.  0.
        -11    1    3    3    0    0 -0.61419016909E+01  0.78925287670E+01 -0.20728633927E+02  0.23015021865E+02  0.51100000000E-03 0. -1.
         11    1    3    3    0    0  0.61419016909E+01 -0.78925287670E+01 -0.20468776989E+02  0.22781259807E+02  0.51100000000E-03 0.  1.
<mgrwt>
<rscale>  0 0.20001819E+02</rscale>
<asrwt>0</asrwt>
<pdfrwt beam="2">  1        4 0.66918219E-02 0.20001819E+02</pdfrwt>
<pdfrwt beam="1">  1       -4 0.35375932E-03 0.20001819E+02</pdfrwt>
<totfact> 0.11698592E+06</totfact>
</mgrwt>
</event>
<event>
 5    1  0.1154861E-006  0.2000028E+02  0.7818608E-02  0.1745322E+00
         -4   -1    0    0    0  501 -0.00000000000E+00  0.00000000000E+00  0.93190963591E+01  0.94266620259E+01  0.14200000000E+01 0. -1.
          4   -1    0    0  501    0  0.00000000000E+00 -0.00000000000E+00 -0.10513811365E+02  0.10609270918E+02  0.14200000000E+01 0.  1.
       1023    2    1    2    0    0  0.00000000000E+00  0.00000000000E+00 -0.11947150058E+01  0.20035932944E+02  0.20000281623E+02 0.  0.
        -11    1    3    3    0    0  0.63818674291E+01  0.76989503322E+01 -0.62475380611E+00  0.10019600076E+02  0.51100000000E-03 0. -1.
         11    1    3    3    0    0 -0.63818674291E+01 -0.76989503322E+01 -0.56996119973E+00  0.10016332868E+02  0.51100000000E-03 0.  1.
<mgrwt>
<rscale>  0 0.20000282E+02</rscale>
<asrwt>0</asrwt>
<pdfrwt beam="2">  1        4 0.16331268E-02 0.20000282E+02</pdfrwt>
<pdfrwt beam="1">  1       -4 0.14493245E-02 0.20000282E+02</pdfrwt>
<totfact> 0.13011538E+06</totfact>
</mgrwt>
</event>
<event>
 5    1  0.1154861E-006  0.2000031E+02  0.7818608E-02  0.1745322E+00
          4   -1    0    0  501    0  0.00000000000E+00  0.00000000000E+00  0.35896330372E+01  0.38602934269E+01  0.14200000000E+01 0. -1.
         -4   -1    0    0    0  501 -0.00000000000E+00 -0.00000000000E+00 -0.26556426253E+02  0.26594363601E+02  0.14200000000E+01 0.  1.
       1023    2    1    2    0    0  0.00000000000E+00  0.00000000000E+00 -0.22966793216E+02  0.30454657028E+02  0.20000313599E+02 0.  0.
        -11    1    3    3    0    0  0.46206545734E+01  0.88684704505E+01 -0.11401128944E+02  0.15165287939E+02  0.51100000000E-03 0.  1.
         11    1    3    3    0    0 -0.46206545734E+01 -0.88684704505E+01 -0.11565664272E+02  0.15289369089E+02  0.51100000000E-03 0. -1.
<mgrwt>
<rscale>  0 0.20000314E+02</rscale>
<asrwt>0</asrwt>
<pdfrwt beam="1">  1        4 0.57598954E-03 0.20000314E+02</pdfrwt>
<pdfrwt beam="2">  1       -4 0.41093422E-02 0.20000314E+02</pdfrwt>
<totfact> 0.12431665E+06</totfact>
</mgrwt>
</event>
<event>
 5    1  0.1154861E-006  0.2000249E+02  0.7818608E-02  0.1745278E+00
         -4   -1    0    0    0  501 -0.00000000000E+00  0.00000000000E+00  0.56472035578E+02  0.56489885841E+02  0.14200000000E+01 0.  1.
          4   -1    0    0  501    0  0.00000000000E+00 -0.00000000000E+00 -0.14654987361E+01  0.20406093564E+01  0.14200000000E+01 0. -1.
       1023    2    1    2    0    0  0.00000000000E+00  0.00000000000E+00  0.55006536842E+02  0.58530495197E+02  0.20002494162E+02 0.  0.
        -11    1    3    3    0    0 -0.57277792989E+01  0.81976292515E+01  0.27128972972E+02  0.28913487438E+02  0.51100000000E-03 0. -1.
         11    1    3    3    0    0  0.57277792989E+01 -0.81976292515E+01  0.27877563870E+02  0.29617007759E+02  0.51100000000E-03 0.  1.
<mgrwt>
<rscale>  0 0.20002494E+02</rscale>
<asrwt>0</asrwt>
<pdfrwt beam="2">  1        4 0.27107375E-03 0.20002494E+02</pdfrwt>
<pdfrwt beam="1">  1       -4 0.87336168E-02 0.20002494E+02</pdfrwt>
<totfact> 0.11172779E+06</totfact>
</mgrwt>
</event>
<event>
 5    1  0.1223583E-006  0.2000134E+02  0.7818608E-02  0.1745302E+00
          4   -1    0    0  501    0  0.00000000000E+00  0.00000000000E+00  0.26486520447E+02  0.26524557780E+02  0.14200000000E+01 0. -1.
         -4   -1    0    0    0  501 -0.00000000000E+00 -0.00000000000E+00 -0.36002058157E+01  0.38701268604E+01  0.14200000000E+01 0.  1.
       1023    2    1    2    0    0  0.00000000000E+00  0.00000000000E+00  0.22886314632E+02  0.30394684640E+02  0.20001336379E+02 0.  0.
        -11    1    3    3    0    0 -0.39367593991E+01 -0.91929489125E+01  0.11550393249E+02  0.15278087862E+02  0.51100000000E-03 0. -1.
         11    1    3    3    0    0  0.39367593991E+01  0.91929489125E+01  0.11335921383E+02  0.15116596778E+02  0.51100000000E-03 0.  1.
<mgrwt>
<rscale>  0 0.20001336E+02</rscale>
<asrwt>0</asrwt>
<pdfrwt beam="1">  1        4 0.40985383E-02 0.20001336E+02</pdfrwt>
<pdfrwt beam="2">  1       -4 0.57756695E-03 0.20001336E+02</pdfrwt>
<totfact> 0.12433489E+06</totfact>
</mgrwt>
</event>
<event>
 5    1  0.1154861E-006  0.2000258E+02  0.7818608E-02  0.1745277E+00
         -4   -1    0    0    0  501 -0.00000000000E+00  0.00000000000E+00  0.57164259105E+00  0.15307433658E+01  0.14200000000E+01 0.  1.
          4   -1    0    0  501    0  0.00000000000E+00 -0.00000000000E+00 -0.94187683347E+02  0.94198386899E+02  0.14200000000E+01 0. -1.
       1023    2    1    2    0    0  0.00000000000E+00  0.00000000000E+00 -0.93616040756E+02  0.95729130265E+02  0.20002582192E+02 0.  0.
        -11    1    3    3    0    0 -0.97620271941E+01  0.21745283888E+01 -0.46766664685E+02  0.47824122309E+02  0.51100000000E-03 0.  1.
         11    1    3    3    0    0  0.97620271941E+01 -0.21745283888E+01 -0.46849376072E+02  0.47905007956E+02  0.51100000000E-03 0. -1.
<mgrwt>
<rscale>  0 0.20002582E+02</rscale>
<asrwt>0</asrwt>
<pdfrwt beam="2">  1        4 0.14565006E-01 0.20002582E+02</pdfrwt>
<pdfrwt beam="1">  1       -4 0.16254542E-03 0.20002582E+02</pdfrwt>
<totfact> 0.99220326E+05</totfact>
</mgrwt>
</event>
<event>
 5    1  0.1156126E-006  0.2000040E+02  0.7818608E-02  0.1745320E+00
         -4   -1    0    0    0  501 -0.00000000000E+00  0.00000000000E+00  0.11637253871E+02  0.11723569322E+02  0.14200000000E+01 0. -1.
          4   -1    0    0  501    0  0.00000000000E+00 -0.00000000000E+00 -0.84156682553E+01  0.85346278292E+01  0.14200000000E+01 0.  1.
       1023    2    1    2    0    0  0.00000000000E+00  0.00000000000E+00  0.32215856153E+01  0.20258197151E+02  0.20000398445E+02 0.  0.
        -11    1    3    3    0    0  0.57802609855E+01  0.81602324561E+01  0.15537335121E+01  0.10120024648E+02  0.51100000000E-03 0. -1.
         11    1    3    3    0    0 -0.57802609855E+01 -0.81602324561E+01  0.16678521032E+01  0.10138172503E+02  0.51100000000E-03 0.  1.
<mgrwt>
<rscale>  0 0.20000398E+02</rscale>
<asrwt>0</asrwt>
<pdfrwt beam="2">  1        4 0.13105086E-02 0.20000398E+02</pdfrwt>
<pdfrwt beam="1">  1       -4 0.18061371E-02 0.20000398E+02</pdfrwt>
<totfact> 0.12998147E+06</totfact>
</mgrwt>
</event>
<event>
 5    1  0.1154861E-006  0.2000060E+02  0.7818608E-02  0.1745316E+00
          4   -1    0    0  501    0  0.00000000000E+00  0.00000000000E+00  0.32648780510E+01  0.35603130042E+01  0.14200000000E+01 0.  1.
         -4   -1    0    0    0  501 -0.00000000000E+00 -0.00000000000E+00 -0.28991415119E+02  0.29026170098E+02  0.14200000000E+01 0. -1.
       1023    2    1    2    0    0  0.00000000000E+00  0.00000000000E+00 -0.25726537068E+02  0.32586483103E+02  0.20000604278E+02 0.  0.
        -11    1    3    3    0    0  0.98405817872E+01 -0.17801558291E+01 -0.12853234611E+02  0.16285319920E+02  0.51100000000E-03 0. -1.
         11    1    3    3    0    0 -0.98405817872E+01  0.17801558291E+01 -0.12873302457E+02  0.16301163182E+02  0.51100000000E-03 0.  1.
<mgrwt>
<rscale>  0 0.20000604E+02</rscale>
<asrwt>0</asrwt>
<pdfrwt beam="1">  1        4 0.52768818E-03 0.20000604E+02</pdfrwt>
<pdfrwt beam="2">  1       -4 0.44856168E-02 0.20000604E+02</pdfrwt>
<totfact> 0.12321862E+06</totfact>
</mgrwt>
</event>
<event>
 5    1  0.1154861E-006  0.2000018E+02  0.7818608E-02  0.1745324E+00
          4   -1    0    0  501    0  0.00000000000E+00  0.00000000000E+00  0.71716717284E+01  0.73109011333E+01  0.14200000000E+01 0.  1.
         -4   -1    0    0    0  501 -0.00000000000E+00 -0.00000000000E+00 -0.13633496754E+02  0.13707247489E+02  0.14200000000E+01 0. -1.
       1023    2    1    2    0    0  0.00000000000E+00  0.00000000000E+00 -0.64618250251E+01  0.21018148622E+02  0.20000184721E+02 0.  0.
        -11    1    3    3    0    0  0.25614422120E+01 -0.96664505874E+01 -0.32565205947E+01  0.10516947267E+02  0.51100000000E-03 0.  1.
         11    1    3    3    0    0 -0.25614422120E+01  0.96664505874E+01 -0.32053044304E+01  0.10501201356E+02  0.51100000000E-03 0. -1.
<mgrwt>
<rscale>  0 0.20000185E+02</rscale>
<asrwt>0</asrwt>
<pdfrwt beam="1">  1        4 0.11197172E-02 0.20000185E+02</pdfrwt>
<pdfrwt beam="2">  1       -4 0.21138441E-02 0.20000185E+02</pdfrwt>
<totfact> 0.12953435E+06</totfact>
</mgrwt>
</event>
<event>
 5    1  0.1198234E-006  0.2000159E+02  0.7818608E-02  0.1745296E+00
         -4   -1    0    0    0  501 -0.00000000000E+00  0.00000000000E+00  0.52026643177E+01  0.53929691268E+01  0.14200000000E+01 0.  1.
          4   -1    0    0  501    0  0.00000000000E+00 -0.00000000000E+00 -0.18660937147E+02  0.18714886460E+02  0.14200000000E+01 0.  1.
       1023    2    1    2    0    0  0.00000000000E+00  0.00000000000E+00 -0.13458272829E+02  0.24107855587E+02  0.20001589773E+02 0.  0.
        -11    1    3    3    0    0  0.90307675800E+01 -0.42966379533E+01 -0.67364989878E+01  0.12058037969E+02  0.51100000000E-03 0.  1.
         11    1    3    3    0    0 -0.90307675800E+01  0.42966379533E+01 -0.67217738416E+01  0.12049817618E+02  0.51100000000E-03 0. -1.
<mgrwt>
<rscale>  0 0.20001590E+02</rscale>
<asrwt>0</asrwt>
<pdfrwt beam="2">  1        4 0.28897022E-02 0.20001590E+02</pdfrwt>
<pdfrwt beam="1">  1       -4 0.81919868E-03 0.20001590E+02</pdfrwt>
<totfact> 0.12773611E+06</totfact>
</mgrwt>
</event>
<event>
 5    1  0.1185585E-006  0.2000114E+02  0.7818608E-02  0.1745305E+00
         -4   -1    0    0    0  501 -0.00000000000E+00  0.00000000000E+00  0.53373750153E+01  0.55230401098E+01  0.14200000000E+01 0. -1.
          4   -1    0    0  501    0  0.00000000000E+00 -0.00000000000E+00 -0.18203816460E+02  0.18259116454E+02  0.14200000000E+01 0.  1.
       1023    2    1    2    0    0  0.00000000000E+00  0.00000000000E+00 -0.12866441444E+02  0.23782156564E+02  0.20001141352E+02 0.  0.
        -11    1    3    3    0    0 -0.86237447454E+01 -0.50636192840E+01 -0.63774510488E+01  0.11860906198E+02  0.51100000000E-03 0. -1.
         11    1    3    3    0    0  0.86237447454E+01  0.50636192840E+01 -0.64889903954E+01  0.11921250366E+02  0.51100000000E-03 0.  1.
<mgrwt>
<rscale>  0 0.20001141E+02</rscale>
<asrwt>0</asrwt>
<pdfrwt beam="2">  1        4 0.28191229E-02 0.20001141E+02</pdfrwt>
<pdfrwt beam="1">  1       -4 0.83967040E-03 0.20001141E+02</pdfrwt>
<totfact> 0.12792580E+06</totfact>
</mgrwt>
</event>
<event>
 5    1  0.1154861E-006  0.2000014E+02  0.7818608E-02  0.1745325E+00
          4   -1    0    0  501    0  0.00000000000E+00  0.00000000000E+00  0.42555692835E+02  0.42579377551E+02  0.14200000000E+01 0.  1.
         -4   -1    0    0    0  501 -0.00000000000E+00 -0.00000000000E+00 -0.21087237944E+01  0.25422659265E+01  0.14200000000E+01 0. -1.
       1023    2    1    2    0    0  0.00000000000E+00  0.00000000000E+00  0.40446969040E+02  0.45121643478E+02  0.20000135139E+02 0.  0.
        -11    1    3    3    0    0  0.85124880190E+01 -0.52476461553E+01  0.20148364281E+02  0.22493484077E+02  0.51100000000E-03 0.  1.
         11    1    3    3    0    0 -0.85124880190E+01  0.52476461553E+01  0.20298604759E+02  0.22628159401E+02  0.51100000000E-03 0. -1.
<mgrwt>
<rscale>  0 0.20000135E+02</rscale>
<asrwt>0</asrwt>
<pdfrwt beam="1">  1        4 0.65822001E-02 0.20000135E+02</pdfrwt>
<pdfrwt beam="2">  1       -4 0.35959039E-03 0.20000135E+02</pdfrwt>
<totfact> 0.11730272E+06</totfact>
</mgrwt>
</event>
<event>
 5    1  0.1154861E-006  0.2000477E+02  0.7818608E-02  0.1745233E+00
         -4   -1    0    0    0  501 -0.00000000000E+00  0.00000000000E+00  0.73059232722E+01  0.74426416587E+01  0.14200000000E+01 0.  1.
          4   -1    0    0  501    0  0.00000000000E+00 -0.00000000000E+00 -0.13392505673E+02  0.13467576181E+02  0.14200000000E+01 0. -1.
       1023    2    1    2    0    0  0.00000000000E+00  0.00000000000E+00 -0.60865824004E+01  0.20910217840E+02  0.20004767551E+02 0.  0.
        -11    1    3    3    0    0 -0.22743695816E+01 -0.97400707590E+01 -0.29626937894E+01  0.10431648486E+02  0.51100000000E-03 0. -1.
         11    1    3    3    0    0  0.22743695816E+01  0.97400707590E+01 -0.31238886109E+01  0.10478569354E+02  0.51100000000E-03 0.  1.
<mgrwt>
<rscale>  0 0.20004768E+02</rscale>
<asrwt>0</asrwt>
<pdfrwt beam="2">  1        4 0.20766769E-02 0.20004768E+02</pdfrwt>
<pdfrwt beam="1">  1       -4 0.11402796E-02 0.20004768E+02</pdfrwt>
<totfact> 0.12953752E+06</totfact>
</mgrwt>
</event>
<event>
 5    1  0.1225015E-006  0.2000112E+02  0.7818608E-02  0.1745306E+00
          4   -1    0    0  501    0  0.00000000000E+00  0.00000000000E+00  0.82776925259E+01  0.83986066436E+01  0.14200000000E+01 0.  1.
         -4   -1    0    0    0  501 -0.00000000000E+00 -0.00000000000E+00 -0.11830738677E+02  0.11915652632E+02  0.14200000000E+01 0. -1.
       1023    2    1    2    0    0  0.00000000000E+00  0.00000000000E+00 -0.35530461510E+01  0.20314259275E+02  0.20001124792E+02 0.  0.
        -11    1    3    3    0    0 -0.68267749082E+00  0.99770684137E+01 -0.18349148077E+01  0.10167342588E+02  0.51100000000E-03 0.  1.
         11    1    3    3    0    0  0.68267749082E+00 -0.99770684137E+01 -0.17181313432E+01  0.10146916687E+02  0.51100000000E-03 0. -1.
<mgrwt>
<rscale>  0 0.20001125E+02</rscale>
<asrwt>0</asrwt>
<pdfrwt beam="1">  1        4 0.12893241E-02 0.20001125E+02</pdfrwt>
<pdfrwt beam="2">  1       -4 0.18359466E-02 0.20001125E+02</pdfrwt>
<totfact> 0.12993849E+06</totfact>
</mgrwt>
</event>
<event>
 5    1  0.1154861E-006  0.2000076E+02  0.7818608E-02  0.1745313E+00
          4   -1    0    0  501    0  0.00000000000E+00  0.00000000000E+00  0.72221192477E+00  0.15931070473E+01  0.14200000000E+01 0.  1.
         -4   -1    0    0    0  501 -0.00000000000E+00 -0.00000000000E+00 -0.85508740581E+02  0.85520530376E+02  0.14200000000E+01 0. -1.
       1023    2    1    2    0    0  0.00000000000E+00  0.00000000000E+00 -0.84786528657E+02  0.87113637424E+02  0.20000759573E+02 0.  0.
        -11    1    3    3    0    0 -0.86220379217E+01  0.50662310051E+01 -0.42553952462E+02  0.43713214306E+02  0.51100000000E-03 0. -1.
         11    1    3    3    0    0  0.86220379217E+01 -0.50662310051E+01 -0.42232576195E+02  0.43400423118E+02  0.51100000000E-03 0.  1.
<mgrwt>
<rscale>  0 0.20000760E+02</rscale>
<asrwt>0</asrwt>
<pdfrwt beam="1">  1        4 0.17900843E-03 0.20000760E+02</pdfrwt>
<pdfrwt beam="2">  1       -4 0.13223085E-01 0.20000760E+02</pdfrwt>
<totfact> 0.10183742E+06</totfact>
</mgrwt>
</event>
<event>
 5    1  0.1154861E-006  0.2000398E+02  0.7818608E-02  0.1745249E+00
         -4   -1    0    0    0  501 -0.00000000000E+00  0.00000000000E+00  0.68797766393E+01  0.70247937057E+01  0.14200000000E+01 0. -1.
          4   -1    0    0  501    0  0.00000000000E+00 -0.00000000000E+00 -0.14208712862E+02  0.14279493030E+02  0.14200000000E+01 0.  1.
       1023    2    1    2    0    0  0.00000000000E+00  0.00000000000E+00 -0.73289362224E+01  0.21304286735E+02  0.20003982782E+02 0.  0.
        -11    1    3    3    0    0  0.11707256101E+01  0.99322440813E+01 -0.38141779670E+01  0.10703645396E+02  0.51100000000E-03 0. -1.
         11    1    3    3    0    0 -0.11707256101E+01 -0.99322440813E+01 -0.35147582553E+01  0.10600641339E+02  0.51100000000E-03 0.  1.
<mgrwt>
<rscale>  0 0.20003983E+02</rscale>
<asrwt>0</asrwt>
<pdfrwt beam="2">  1        4 0.22025556E-02 0.20003983E+02</pdfrwt>
<pdfrwt beam="1">  1       -4 0.10750270E-02 0.20003983E+02</pdfrwt>
<totfact> 0.12931583E+06</totfact>
</mgrwt>
</event>
<event>
 5    1  0.1186961E-006  0.2000078E+02  0.7818608E-02  0.1745313E+00
         -4   -1    0    0    0  501 -0.00000000000E+00  0.00000000000E+00  0.49691925124E+01  0.51681016075E+01  0.14200000000E+01 0. -1.
          4   -1    0    0  501    0  0.00000000000E+00 -0.00000000000E+00 -0.19505443292E+02  0.19557063124E+02  0.14200000000E+01 0.  1.
       1023    2    1    2    0    0  0.00000000000E+00  0.00000000000E+00 -0.14536250780E+02  0.24725164731E+02  0.20000779591E+02 0.  0.
        -11    1    3    3    0    0  0.60591425746E+01 -0.79557872590E+01 -0.72606923818E+01  0.12358212402E+02  0.51100000000E-03 0.  1.
         11    1    3    3    0    0 -0.60591425746E+01  0.79557872590E+01 -0.72755583979E+01  0.12366952329E+02  0.51100000000E-03 0. -1.
<mgrwt>
<rscale>  0 0.20000780E+02</rscale>
<asrwt>0</asrwt>
<pdfrwt beam="2">  1        4 0.30201089E-02 0.20000780E+02</pdfrwt>
<pdfrwt beam="1">  1       -4 0.78376262E-03 0.20000780E+02</pdfrwt>
<totfact> 0.12739954E+06</totfact>
</mgrwt>
</event>
<event>
 5    1  0.1154861E-006  0.2000125E+02  0.7818608E-02  0.1745303E+00
         -4   -1    0    0    0  501 -0.00000000000E+00  0.00000000000E+00  0.23250872313E+01  0.27244138146E+01  0.14200000000E+01 0. -1.
          4   -1    0    0  501    0  0.00000000000E+00 -0.00000000000E+00 -0.39199643253E+02  0.39225354442E+02  0.14200000000E+01 0.  1.
       1023    2    1    2    0    0  0.00000000000E+00  0.00000000000E+00 -0.36874556021E+02  0.41949768257E+02  0.20001254337E+02 0.  0.
        -11    1    3    3    0    0 -0.95543338705E+01 -0.29539390386E+01 -0.18356266101E+02  0.20903673290E+02  0.51100000000E-03 0. -1.
         11    1    3    3    0    0  0.95543338705E+01  0.29539390386E+01 -0.18518289920E+02  0.21046094967E+02  0.51100000000E-03 0.  1.
<mgrwt>
<rscale>  0 0.20001254E+02</rscale>
<asrwt>0</asrwt>
<pdfrwt beam="2">  1        4 0.60634091E-02 0.20001254E+02</pdfrwt>
<pdfrwt beam="1">  1       -4 0.39040097E-03 0.20001254E+02</pdfrwt>
<totfact> 0.11871307E+06</totfact>
</mgrwt>
</event>
<event>
 5    1  0.1154861E-006  0.2000810E+02  0.7818608E-02  0.1745167E+00
          4   -1    0    0  501    0  0.00000000000E+00  0.00000000000E+00  0.74133060085E+02  0.74146658708E+02  0.14200000000E+01 0. -1.
         -4   -1    0    0    0  501 -0.00000000000E+00 -0.00000000000E+00 -0.95901530515E+00  0.17135082012E+01  0.14200000000E+01 0.  1.
       1023    2    1    2    0    0  0.00000000000E+00  0.00000000000E+00  0.73174044780E+02  0.75860166909E+02  0.20008100711E+02 0.  0.
        -11    1    3    3    0    0 -0.61508704312E+01  0.78855223793E+01  0.37563670681E+02  0.38872149741E+02  0.51100000000E-03 0. -1.
         11    1    3    3    0    0  0.61508704312E+01 -0.78855223793E+01  0.35610374099E+02  0.36988017168E+02  0.51100000000E-03 0.  1.
<mgrwt>
<rscale>  0 0.20008101E+02</rscale>
<asrwt>0</asrwt>
<pdfrwt beam="1">  1        4 0.11464173E-01 0.20008101E+02</pdfrwt>
<pdfrwt beam="2">  1       -4 0.20662473E-03 0.20008101E+02</pdfrwt>
<totfact> 0.10540048E+06</totfact>
</mgrwt>
</event>
<event>
 5    1  0.1197096E-006  0.2000123E+02  0.7818608E-02  0.1745304E+00
          4   -1    0    0  501    0  0.00000000000E+00  0.00000000000E+00  0.23649524087E+02  0.23692116611E+02  0.14200000000E+01 0. -1.
         -4   -1    0    0    0  501 -0.00000000000E+00 -0.00000000000E+00 -0.40619014675E+01  0.43029575331E+01  0.14200000000E+01 0.  1.
       1023    2    1    2    0    0  0.00000000000E+00  0.00000000000E+00  0.19587622619E+02  0.27995074144E+02  0.20001230374E+02 0.  0.
        -11    1    3    3    0    0  0.89810789982E+01 -0.43980567333E+01  0.96565235501E+01  0.13901479430E+02  0.51100000000E-03 0. -1.
         11    1    3    3    0    0 -0.89810789982E+01  0.43980567333E+01  0.99310990689E+01  0.14093594715E+02  0.51100000000E-03 0.  1.
<mgrwt>
<rscale>  0 0.20001230E+02</rscale>
<asrwt>0</asrwt>
<pdfrwt beam="1">  1        4 0.36602075E-02 0.20001230E+02</pdfrwt>
<pdfrwt beam="2">  1       -4 0.64672703E-03 0.20001230E+02</pdfrwt>
<totfact> 0.12560243E+06</totfact>
</mgrwt>
</event>
<event>
 5    1  0.1179763E-006  0.2000162E+02  0.7818608E-02  0.1745296E+00
         -4   -1    0    0    0  501 -0.00000000000E+00  0.00000000000E+00  0.57741064936E+01  0.59461505026E+01  0.14200000000E+01 0. -1.
          4   -1    0    0  501    0  0.00000000000E+00 -0.00000000000E+00 -0.16864915768E+02  0.16924591099E+02  0.14200000000E+01 0.  1.
       1023    2    1    2    0    0  0.00000000000E+00  0.00000000000E+00 -0.11090809275E+02  0.22870741602E+02  0.20001619210E+02 0.  0.
        -11    1    3    3    0    0  0.61522669697E+01  0.78841293164E+01 -0.54545849436E+01  0.11391329207E+02  0.51100000000E-03 0. -1.
         11    1    3    3    0    0 -0.61522669697E+01 -0.78841293164E+01 -0.56362243309E+01  0.11479412394E+02  0.51100000000E-03 0.  1.
<mgrwt>
<rscale>  0 0.20001619E+02</rscale>
<asrwt>0</asrwt>
<pdfrwt beam="2">  1        4 0.26124270E-02 0.20001619E+02</pdfrwt>
<pdfrwt beam="1">  1       -4 0.90614865E-03 0.20001619E+02</pdfrwt>
<totfact> 0.12843861E+06</totfact>
</mgrwt>
</event>
<event>
 5    1  0.1154861E-006  0.2000129E+02  0.7818608E-02  0.1745302E+00
          4   -1    0    0  501    0  0.00000000000E+00  0.00000000000E+00  0.29858434886E+01  0.33063062983E+01  0.14200000000E+01 0.  1.
         -4   -1    0    0    0  501 -0.00000000000E+00 -0.00000000000E+00 -0.31452436908E+02  0.31484475340E+02  0.14200000000E+01 0. -1.
       1023    2    1    2    0    0  0.00000000000E+00  0.00000000000E+00 -0.28466593420E+02  0.34790781639E+02  0.20001288612E+02 0.  0.
        -11    1    3    3    0    0 -0.99882629054E+01 -0.49653784929E+00 -0.14179950841E+02  0.17351742040E+02  0.51100000000E-03 0.  1.
         11    1    3    3    0    0  0.99882629054E+01  0.49653784929E+00 -0.14286642579E+02  0.17439039599E+02  0.51100000000E-03 0. -1.
<mgrwt>
<rscale>  0 0.20001289E+02</rscale>
<asrwt>0</asrwt>
<pdfrwt beam="1">  1        4 0.48647604E-03 0.20001289E+02</pdfrwt>
<pdfrwt beam="2">  1       -4 0.48659517E-02 0.20001289E+02</pdfrwt>
<totfact> 0.12210713E+06</totfact>
</mgrwt>
</event>
<event>
 5    1  0.1165475E-006  0.2000191E+02  0.7818608E-02  0.1745290E+00
          4   -1    0    0  501    0  0.00000000000E+00  0.00000000000E+00  0.17733725735E+02  0.17790487021E+02  0.14200000000E+01 0. -1.
         -4   -1    0    0    0  501 -0.00000000000E+00 -0.00000000000E+00 -0.54836964007E+01  0.56645676106E+01  0.14200000000E+01 0.  1.
       1023    2    1    2    0    0  0.00000000000E+00  0.00000000000E+00  0.12250029335E+02  0.23455054632E+02  0.20001909136E+02 0.  0.
        -11    1    3    3    0    0 -0.32358233420E+01  0.94621907295E+01  0.62709408921E+01  0.11803741188E+02  0.51100000000E-03 0.  1.
         11    1    3    3    0    0  0.32358233420E+01 -0.94621907295E+01  0.59790884424E+01  0.11651313444E+02  0.51100000000E-03 0. -1.
<mgrwt>
<rscale>  0 0.20001909E+02</rscale>
<asrwt>0</asrwt>
<pdfrwt beam="1">  1        4 0.27465449E-02 0.20001909E+02</pdfrwt>
<pdfrwt beam="2">  1       -4 0.86192503E-03 0.20001909E+02</pdfrwt>
<totfact> 0.12810128E+06</totfact>
</mgrwt>
</event>
<event>
 5    1  0.1174271E-006  0.2000171E+02  0.7818608E-02  0.1745294E+00
          4   -1    0    0  501    0  0.00000000000E+00  0.00000000000E+00  0.58090508000E+01  0.59800895643E+01  0.14200000000E+01 0.  1.
         -4   -1    0    0    0  501 -0.00000000000E+00 -0.00000000000E+00 -0.16766178723E+02  0.16826204235E+02  0.14200000000E+01 0. -1.
       1023    2    1    2    0    0  0.00000000000E+00  0.00000000000E+00 -0.10957127923E+02  0.22806293799E+02  0.20001709541E+02 0.  0.
        -11    1    3    3    0    0  0.15198703791E+01  0.98843876859E+01 -0.53904643283E+01  0.11360820033E+02  0.51100000000E-03 0.  1.
         11    1    3    3    0    0 -0.15198703791E+01 -0.98843876859E+01 -0.55666635944E+01  0.11445473766E+02  0.51100000000E-03 0. -1.
<mgrwt>
<rscale>  0 0.20001710E+02</rscale>
<asrwt>0</asrwt>
<pdfrwt beam="1">  1        4 0.91147430E-03 0.20001710E+02</pdfrwt>
<pdfrwt beam="2">  1       -4 0.25971863E-02 0.20001710E+02</pdfrwt>
<totfact> 0.12847440E+06</totfact>
</mgrwt>
</event>
<event>
 5    1  0.1154861E-006  0.2000202E+02  0.7818608E-02  0.1745288E+00
         -4   -1    0    0    0  501 -0.00000000000E+00  0.00000000000E+00  0.14570474898E+01  0.20345484481E+01  0.14200000000E+01 0.  1.
          4   -1    0    0  501    0  0.00000000000E+00 -0.00000000000E+00 -0.56704126948E+02  0.56721904173E+02  0.14200000000E+01 0. -1.
       1023    2    1    2    0    0  0.00000000000E+00  0.00000000000E+00 -0.55247079459E+02  0.58756452621E+02  0.20002023295E+02 0.  0.
        -11    1    3    3    0    0 -0.82860676832E+01  0.56000952334E+01 -0.27577146033E+02  0.29334603591E+02  0.51100000000E-03 0. -1.
         11    1    3    3    0    0  0.82860676832E+01 -0.56000952334E+01 -0.27669933426E+02  0.29421849030E+02  0.51100000000E-03 0.  1.
<mgrwt>
<rscale>  0 0.20002023E+02</rscale>
<asrwt>0</asrwt>
<pdfrwt beam="2">  1        4 0.87695011E-02 0.20002023E+02</pdfrwt>
<pdfrwt beam="1">  1       -4 0.26995183E-03 0.20002023E+02</pdfrwt>
<totfact> 0.11164543E+06</totfact>
</mgrwt>
</event>
<event>
 5    1  0.1154861E-006  0.2000186E+02  0.7818608E-02  0.1745291E+00
          4   -1    0    0  501    0  0.00000000000E+00  0.00000000000E+00  0.33446828562E+02  0.33476958357E+02  0.14200000000E+01 0. -1.
         -4   -1    0    0    0  501 -0.00000000000E+00 -0.00000000000E+00 -0.27884504371E+01  0.31291941199E+01  0.14200000000E+01 0.  1.
       1023    2    1    2    0    0  0.00000000000E+00  0.00000000000E+00  0.30658378125E+02  0.36606152477E+02  0.20001856162E+02 0.  0.
        -11    1    3    3    0    0  0.75154883299E+01  0.65979932135E+01  0.15237994946E+02  0.18226699359E+02  0.51100000000E-03 0.  1.
         11    1    3    3    0    0 -0.75154883299E+01 -0.65979932135E+01  0.15420383179E+02  0.18379453118E+02  0.51100000000E-03 0. -1.
<mgrwt>
<rscale>  0 0.20001856E+02</rscale>
<asrwt>0</asrwt>
<pdfrwt beam="1">  1        4 0.51741947E-02 0.20001856E+02</pdfrwt>
<pdfrwt beam="2">  1       -4 0.45752110E-03 0.20001856E+02</pdfrwt>
<totfact> 0.12121318E+06</totfact>
</mgrwt>
</event>
<event>
 5    1  0.1154861E-006  0.2000011E+02  0.7818608E-02  0.1745326E+00
          4   -1    0    0  501    0  0.00000000000E+00  0.00000000000E+00  0.34489956876E+01  0.37298755010E+01  0.14200000000E+01 0.  1.
         -4   -1    0    0    0  501 -0.00000000000E+00 -0.00000000000E+00 -0.27559968981E+02  0.27596526778E+02  0.14200000000E+01 0. -1.
       1023    2    1    2    0    0  0.00000000000E+00  0.00000000000E+00 -0.24110973293E+02  0.31326402279E+02  0.20000111165E+02 0.  0.
        -11    1    3    3    0    0 -0.99455793045E+01 -0.10423836452E+01 -0.12055232343E+02  0.15663005410E+02  0.51100000000E-03 0.  1.
         11    1    3    3    0    0  0.99455793045E+01  0.10423836452E+01 -0.12055740950E+02  0.15663396869E+02  0.51100000000E-03 0. -1.
<mgrwt>
<rscale>  0 0.20000111E+02</rscale>
<asrwt>0</asrwt>
<pdfrwt beam="1">  1        4 0.55503302E-03 0.20000111E+02</pdfrwt>
<pdfrwt beam="2">  1       -4 0.42644134E-02 0.20000111E+02</pdfrwt>
<totfact> 0.12386869E+06</totfact>
</mgrwt>
</event>
<event>
 5    1  0.1189106E-006  0.2000104E+02  0.7818608E-02  0.1745307E+00
          4   -1    0    0  501    0  0.00000000000E+00  0.00000000000E+00  0.63344008387E+01  0.64916125874E+01  0.14200000000E+01 0. -1.
         -4   -1    0    0    0  501 -0.00000000000E+00 -0.00000000000E+00 -0.15404664921E+02  0.15469974186E+02  0.14200000000E+01 0.  1.
       1023    2    1    2    0    0  0.00000000000E+00  0.00000000000E+00 -0.90702640823E+01  0.21961586774E+02  0.20001040050E+02 0.  0.
        -11    1    3    3    0    0  0.70865526477E+01 -0.70560046450E+01 -0.46043208202E+01  0.11009368758E+02  0.51100000000E-03 0. -1.
         11    1    3    3    0    0 -0.70865526477E+01  0.70560046450E+01 -0.44659432621E+01  0.10952218016E+02  0.51100000000E-03 0.  1.
<mgrwt>
<rscale>  0 0.20001040E+02</rscale>
<asrwt>0</asrwt>
<pdfrwt beam="1">  1        4 0.99164021E-03 0.20001040E+02</pdfrwt>
<pdfrwt beam="2">  1       -4 0.23870654E-02 0.20001040E+02</pdfrwt>
<totfact> 0.12897086E+06</totfact>
</mgrwt>
</event>
<event>
 5    1  0.1154861E-006  0.2000162E+02  0.7818608E-02  0.1745296E+00
          4   -1    0    0  501    0  0.00000000000E+00  0.00000000000E+00  0.14188549198E+01  0.20073737279E+01  0.14200000000E+01 0. -1.
         -4   -1    0    0    0  501 -0.00000000000E+00 -0.00000000000E+00 -0.57783914578E+02  0.57801359706E+02  0.14200000000E+01 0.  1.
       1023    2    1    2    0    0  0.00000000000E+00  0.00000000000E+00 -0.56365059658E+02  0.59808733434E+02  0.20001616054E+02 0.  0.
        -11    1    3    3    0    0 -0.80235916016E+01  0.59697682498E+01 -0.28175335347E+02  0.29897586480E+02  0.51100000000E-03 0. -1.
         11    1    3    3    0    0  0.80235916016E+01 -0.59697682498E+01 -0.28189724310E+02  0.29911146954E+02  0.51100000000E-03 0.  1.
<mgrwt>
<rscale>  0 0.20001616E+02</rscale>
<asrwt>0</asrwt>
<pdfrwt beam="1">  1        4 0.26489803E-03 0.20001616E+02</pdfrwt>
<pdfrwt beam="2">  1       -4 0.89364441E-02 0.20001616E+02</pdfrwt>
<totfact> 0.11124396E+06</totfact>
</mgrwt>
</event>
<event>
 5    1  0.1154861E-006  0.2000746E+02  0.7818608E-02  0.1745180E+00
          4   -1    0    0  501    0  0.00000000000E+00  0.00000000000E+00  0.19435101773E+02  0.19486907937E+02  0.14200000000E+01 0.  1.
         -4   -1    0    0    0  501 -0.00000000000E+00 -0.00000000000E+00 -0.49913460185E+01  0.51894060427E+01  0.14200000000E+01 0. -1.
       1023    2    1    2    0    0  0.00000000000E+00  0.00000000000E+00  0.14443755755E+02  0.24676313979E+02  0.20007458392E+02 0.  0.
        -11    1    3    3    0    0 -0.18200585213E+00  0.99998400743E+01  0.74825508292E+01  0.12490736360E+02  0.51100000000E-03 0. -1.
         11    1    3    3    0    0  0.18200585213E+00 -0.99998400743E+01  0.69612049253E+01  0.12185577619E+02  0.51100000000E-03 0.  1.
<mgrwt>
<rscale>  0 0.20007458E+02</rscale>
<asrwt>0</asrwt>
<pdfrwt beam="1">  1        4 0.30092361E-02 0.20007458E+02</pdfrwt>
<pdfrwt beam="2">  1       -4 0.78711987E-03 0.20007458E+02</pdfrwt>
<totfact> 0.12734029E+06</totfact>
</mgrwt>
</event>
<event>
 5    1  0.1154861E-006  0.2000536E+02  0.7818608E-02  0.1745221E+00
          4   -1    0    0  501    0  0.00000000000E+00  0.00000000000E+00  0.27396814526E+02  0.27433589743E+02  0.14200000000E+01 0. -1.
         -4   -1    0    0    0  501 -0.00000000000E+00 -0.00000000000E+00 -0.34731635911E+01  0.37522347115E+01  0.14200000000E+01 0.  1.
       1023    2    1    2    0    0  0.00000000000E+00  0.00000000000E+00  0.23923650935E+02  0.31185824454E+02  0.20005363602E+02 0.  0.
        -11    1    3    3    0    0 -0.87880494530E+01 -0.47726207724E+01  0.12295878279E+02  0.15849174904E+02  0.51100000000E-03 0. -1.
         11    1    3    3    0    0  0.87880494530E+01  0.47726207724E+01  0.11627772656E+02  0.15336649550E+02  0.51100000000E-03 0.  1.
<mgrwt>
<rscale>  0 0.20005364E+02</rscale>
<asrwt>0</asrwt>
<pdfrwt beam="1">  1        4 0.42391904E-02 0.20005364E+02</pdfrwt>
<pdfrwt beam="2">  1       -4 0.55862874E-03 0.20005364E+02</pdfrwt>
<totfact> 0.12387506E+06</totfact>
</mgrwt>
</event>
<event>
 5    1  0.1154861E-006  0.2000775E+02  0.7818608E-02  0.1745174E+00
         -4   -1    0    0    0  501 -0.00000000000E+00  0.00000000000E+00  0.11018031598E+03  0.11018946606E+03  0.14200000000E+01 0. -1.
          4   -1    0    0  501    0  0.00000000000E+00 -0.00000000000E+00 -0.33842039553E+00  0.14597699696E+01  0.14200000000E+01 0.  1.
       1023    2    1    2    0    0  0.00000000000E+00  0.00000000000E+00  0.10984189559E+03  0.11164923603E+03  0.20007745482E+02 0.  0.
        -11    1    3    3    0    0  0.13133095177E+01 -0.99172820509E+01  0.55000726075E+02  0.55903104871E+02  0.51100000000E-03 0. -1.
         11    1    3    3    0    0 -0.13133095177E+01  0.99172820509E+01  0.54841169511E+02  0.55746131155E+02  0.51100000000E-03 0.  1.
<mgrwt>
<rscale>  0 0.20007745E+02</rscale>
<asrwt>0</asrwt>
<pdfrwt beam="2">  1        4 0.13902622E-03 0.20007745E+02</pdfrwt>
<pdfrwt beam="1">  1       -4 0.17037775E-01 0.20007745E+02</pdfrwt>
<totfact> 0.94741062E+05</totfact>
</mgrwt>
</event>
<event>
 5    1  0.1184052E-006  0.2000052E+02  0.7818608E-02  0.1745318E+00
         -4   -1    0    0    0  501 -0.00000000000E+00  0.00000000000E+00  0.10631720639E+02  0.10726130885E+02  0.14200000000E+01 0.  1.
          4   -1    0    0  501    0  0.00000000000E+00 -0.00000000000E+00 -0.92156918310E+01  0.93244504354E+01  0.14200000000E+01 0. -1.
       1023    2    1    2    0    0  0.00000000000E+00  0.00000000000E+00  0.14160288085E+01  0.20050581320E+02  0.20000516836E+02 0.  0.
        -11    1    3    3    0    0 -0.52324585501E+01  0.85221080822E+01  0.72286762190E+00  0.10026339636E+02  0.51100000000E-03 0.  1.
         11    1    3    3    0    0  0.52324585501E+01 -0.85221080822E+01  0.69316118658E+00  0.10024241684E+02  0.51100000000E-03 0. -1.
<mgrwt>
<rscale>  0 0.20000517E+02</rscale>
<asrwt>0</asrwt>
<pdfrwt beam="2">  1        4 0.14334271E-02 0.20000517E+02</pdfrwt>
<pdfrwt beam="1">  1       -4 0.16512777E-02 0.20000517E+02</pdfrwt>
<totfact> 0.13010357E+06</totfact>
</mgrwt>
</event>
<event>
 5    1  0.1154861E-006  0.2000338E+02  0.7818608E-02  0.1745261E+00
          4   -1    0    0  501    0  0.00000000000E+00  0.00000000000E+00  0.52820048674E+02  0.52839132676E+02  0.14200000000E+01 0. -1.
         -4   -1    0    0    0  501 -0.00000000000E+00 -0.00000000000E+00 -0.16054453483E+01  0.21433279652E+01  0.14200000000E+01 0.  1.
       1023    2    1    2    0    0  0.00000000000E+00  0.00000000000E+00  0.51214603326E+02  0.54982460641E+02  0.20003384322E+02 0.  0.
        -11    1    3    3    0    0  0.39589384928E+01 -0.91832209645E+01  0.25138379087E+02  0.27054442236E+02  0.51100000000E-03 0. -1.
         11    1    3    3    0    0 -0.39589384928E+01  0.91832209645E+01  0.26076224239E+02  0.27928018406E+02  0.51100000000E-03 0.  1.
<mgrwt>
<rscale>  0 0.20003384E+02</rscale>
<asrwt>0</asrwt>
<pdfrwt beam="1">  1        4 0.81690040E-02 0.20003384E+02</pdfrwt>
<pdfrwt beam="2">  1       -4 0.28983521E-03 0.20003384E+02</pdfrwt>
<totfact> 0.11311757E+06</totfact>
</mgrwt>
</event>
<event>
 5    1  0.1162970E-006  0.2000179E+02  0.7818608E-02  0.1745292E+00
         -4   -1    0    0    0  501 -0.00000000000E+00  0.00000000000E+00  0.18369388121E+02  0.18424191161E+02  0.14200000000E+01 0. -1.
          4   -1    0    0  501    0  0.00000000000E+00 -0.00000000000E+00 -0.52880931062E+01  0.54754295447E+01  0.14200000000E+01 0.  1.
       1023    2    1    2    0    0  0.00000000000E+00  0.00000000000E+00  0.13081295015E+02  0.23899620706E+02  0.20001789685E+02 0.  0.
        -11    1    3    3    0    0 -0.95908975212E+01  0.28326915516E+01  0.64308704680E+01  0.11889724636E+02  0.51100000000E-03 0. -1.
         11    1    3    3    0    0  0.95908975212E+01 -0.28326915516E+01  0.66504245469E+01  0.12009896070E+02  0.51100000000E-03 0.  1.
<mgrwt>
<rscale>  0 0.20001790E+02</rscale>
<asrwt>0</asrwt>
<pdfrwt beam="2">  1        4 0.83217890E-03 0.20001790E+02</pdfrwt>
<pdfrwt beam="1">  1       -4 0.28446858E-02 0.20001790E+02</pdfrwt>
<totfact> 0.12785095E+06</totfact>
</mgrwt>
</event>
<event>
 5    1  0.1154861E-006  0.2000036E+02  0.7818608E-02  0.1745321E+00
         -4   -1    0    0    0  501 -0.00000000000E+00  0.00000000000E+00  0.29489908513E+01  0.32730638614E+01  0.14200000000E+01 0.  1.
          4   -1    0    0  501    0  0.00000000000E+00 -0.00000000000E+00 -0.31804140629E+02  0.31835825122E+02  0.14200000000E+01 0. -1.
       1023    2    1    2    0    0  0.00000000000E+00  0.00000000000E+00 -0.28855149778E+02  0.35108888983E+02  0.20000360419E+02 0.  0.
        -11    1    3    3    0    0  0.41597337796E+01  0.90938725389E+01 -0.14499975713E+02  0.17613948984E+02  0.51100000000E-03 0.  1.
         11    1    3    3    0    0 -0.41597337796E+01 -0.90938725389E+01 -0.14355174065E+02  0.17494939999E+02  0.51100000000E-03 0. -1.
<mgrwt>
<rscale>  0 0.20000360E+02</rscale>
<asrwt>0</asrwt>
<pdfrwt beam="2">  1        4 0.49203104E-02 0.20000360E+02</pdfrwt>
<pdfrwt beam="1">  1       -4 0.48105688E-03 0.20000360E+02</pdfrwt>
<totfact> 0.12196182E+06</totfact>
</mgrwt>
</event>
<event>
 5    1  0.1170142E-006  0.2000064E+02  0.7818608E-02  0.1745315E+00
         -4   -1    0    0    0  501 -0.00000000000E+00  0.00000000000E+00  0.75473687917E+01  0.76797900803E+01  0.14200000000E+01 0. -1.
          4   -1    0    0  501    0  0.00000000000E+00 -0.00000000000E+00 -0.12963744463E+02  0.13041283315E+02  0.14200000000E+01 0. -1.
       1023    2    1    2    0    0  0.00000000000E+00  0.00000000000E+00 -0.54163756710E+01  0.20721073395E+02  0.20000643920E+02 0.  0.
        -11    1    3    3    0    0  0.56974058861E+01  0.82186375883E+01 -0.27094172225E+01  0.10360858053E+02  0.51100000000E-03 0. -1.
         11    1    3    3    0    0 -0.56974058861E+01 -0.82186375883E+01 -0.27069584485E+01  0.10360215342E+02  0.51100000000E-03 0.  1.
<mgrwt>
<rscale>  0 0.20000644E+02</rscale>
<asrwt>0</asrwt>
<pdfrwt beam="2">  1        4 0.20105730E-02 0.20000644E+02</pdfrwt>
<pdfrwt beam="1">  1       -4 0.11772844E-02 0.20000644E+02</pdfrwt>
<totfact> 0.12970404E+06</totfact>
</mgrwt>
</event>
<event>
 5    1  0.1154861E-006  0.2000142E+02  0.7818608E-02  0.1745300E+00
         -4   -1    0    0    0  501 -0.00000000000E+00  0.00000000000E+00  0.27868098022E+02  0.27904252138E+02  0.14200000000E+01 0.  1.
          4   -1    0    0  501    0  0.00000000000E+00 -0.00000000000E+00 -0.34082803522E+01  0.36922587882E+01  0.14200000000E+01 0. -1.
       1023    2    1    2    0    0  0.00000000000E+00  0.00000000000E+00  0.24459817670E+02  0.31596510926E+02  0.20001420506E+02 0.  0.
        -11    1    3    3    0    0 -0.99996155552E+01 -0.13414013860E+00  0.12131249754E+02  0.15721880476E+02  0.51100000000E-03 0. -1.
         11    1    3    3    0    0  0.99996155552E+01  0.13414013860E+00  0.12328567916E+02  0.15874630451E+02  0.51100000000E-03 0.  1.
<mgrwt>
<rscale>  0 0.20001421E+02</rscale>
<asrwt>0</asrwt>
<pdfrwt beam="2">  1        4 0.54897640E-03 0.20001421E+02</pdfrwt>
<pdfrwt beam="1">  1       -4 0.43120253E-02 0.20001421E+02</pdfrwt>
<totfact> 0.12371338E+06</totfact>
</mgrwt>
</event>
<event>
 5    1  0.1154861E-006  0.2000016E+02  0.7818608E-02  0.1745325E+00
          4   -1    0    0  501    0  0.00000000000E+00  0.00000000000E+00  0.25562543974E+02  0.25601954114E+02  0.14200000000E+01 0. -1.
         -4   -1    0    0    0  501 -0.00000000000E+00 -0.00000000000E+00 -0.37392376531E+01  0.39997872726E+01  0.14200000000E+01 0.  1.
       1023    2    1    2    0    0  0.00000000000E+00  0.00000000000E+00  0.21823306321E+02  0.29601741386E+02  0.20000159857E+02 0.  0.
        -11    1    3    3    0    0 -0.92405030605E+01 -0.38228694902E+01  0.10883169223E+02  0.14779871466E+02  0.51100000000E-03 0. -1.
         11    1    3    3    0    0  0.92405030605E+01  0.38228694902E+01  0.10940137099E+02  0.14821869921E+02  0.51100000000E-03 0.  1.
<mgrwt>
<rscale>  0 0.20000160E+02</rscale>
<asrwt>0</asrwt>
<pdfrwt beam="1">  1        4 0.39557728E-02 0.20000160E+02</pdfrwt>
<pdfrwt beam="2">  1       -4 0.59834118E-03 0.20000160E+02</pdfrwt>
<totfact> 0.12476391E+06</totfact>
</mgrwt>
</event>
<event>
 5    1  0.1168983E-006  0.2000102E+02  0.7818608E-02  0.1745308E+00
         -4   -1    0    0    0  501 -0.00000000000E+00  0.00000000000E+00  0.38058193513E+02  0.38084675310E+02  0.14200000000E+01 0.  1.
          4   -1    0    0  501    0  0.00000000000E+00 -0.00000000000E+00 -0.24065029563E+01  0.27942184021E+01  0.14200000000E+01 0. -1.
       1023    2    1    2    0    0  0.00000000000E+00  0.00000000000E+00  0.35651690557E+02  0.40878893713E+02  0.20001022763E+02 0.  0.
        -11    1    3    3    0    0 -0.68245725513E+01  0.73093564988E+01  0.17634719459E+02  0.20272760384E+02  0.51100000000E-03 0.  1.
         11    1    3    3    0    0  0.68245725513E+01 -0.73093564988E+01  0.18016971099E+02  0.20606133329E+02  0.51100000000E-03 0. -1.
<mgrwt>
<rscale>  0 0.20001023E+02</rscale>
<asrwt>0</asrwt>
<pdfrwt beam="2">  1        4 0.40209255E-03 0.20001023E+02</pdfrwt>
<pdfrwt beam="1">  1       -4 0.58869680E-02 0.20001023E+02</pdfrwt>
<totfact> 0.11920664E+06</totfact>
</mgrwt>
</event>
<event>
 5    1  0.1172020E-006  0.2000122E+02  0.7818608E-02  0.1745304E+00
          4   -1    0    0  501    0  0.00000000000E+00  0.00000000000E+00  0.35389890749E+01  0.38132458185E+01  0.14200000000E+01 0.  1.
         -4   -1    0    0    0  501 -0.00000000000E+00 -0.00000000000E+00 -0.26912261554E+02  0.26949697994E+02  0.14200000000E+01 0. -1.
       1023    2    1    2    0    0  0.00000000000E+00  0.00000000000E+00 -0.23373272479E+02  0.30762943812E+02  0.20001221103E+02 0.  0.
        -11    1    3    3    0    0 -0.85731549044E+01 -0.51483429136E+01 -0.11550874212E+02  0.15278321737E+02  0.51100000000E-03 0. -1.
         11    1    3    3    0    0  0.85731549044E+01  0.51483429136E+01 -0.11822398267E+02  0.15484622075E+02  0.51100000000E-03 0.  1.
<mgrwt>
<rscale>  0 0.20001221E+02</rscale>
<asrwt>0</asrwt>
<pdfrwt beam="1">  1        4 0.56843627E-03 0.20001221E+02</pdfrwt>
<pdfrwt beam="2">  1       -4 0.41643242E-02 0.20001221E+02</pdfrwt>
<totfact> 0.12414542E+06</totfact>
</mgrwt>
</event>
<event>
 5    1  0.1154861E-006  0.2000372E+02  0.7818608E-02  0.1745254E+00
         -4   -1    0    0    0  501 -0.00000000000E+00  0.00000000000E+00  0.81423461767E+02  0.81435843007E+02  0.14200000000E+01 0. -1.
          4   -1    0    0  501    0  0.00000000000E+00 -0.00000000000E+00 -0.80157576840E+00  0.16306206525E+01  0.14200000000E+01 0.  1.
       1023    2    1    2    0    0  0.00000000000E+00  0.00000000000E+00  0.80621885999E+02  0.83066463659E+02  0.20003721723E+02 0.  0.
        -11    1    3    3    0    0 -0.85042282807E+01 -0.52627311049E+01  0.40883078012E+02  0.42088529380E+02  0.51100000000E-03 0.  1.
         11    1    3    3    0    0  0.85042282807E+01  0.52627311049E+01  0.39738807987E+02  0.40977934279E+02  0.51100000000E-03 0. -1.
<mgrwt>
<rscale>  0 0.20003722E+02</rscale>
<asrwt>0</asrwt>
<pdfrwt beam="2">  1        4 0.18804439E-03 0.20003722E+02</pdfrwt>
<pdfrwt beam="1">  1       -4 0.12591415E-01 0.20003722E+02</pdfrwt>
<totfact> 0.10308218E+06</totfact>
</mgrwt>
</event>
<event>
 4    1  0.1154861E-006  0.2037471E+02  0.7818608E-02  0.1737978E+00
          4   -1    0    0  501    0  0.00000000000E+00  0.00000000000E+00  0.18754877657E+02  0.18808557519E+02  0.14200000000E+01 0. -1.
         -4   -1    0    0    0  501 -0.00000000000E+00 -0.00000000000E+00 -0.53797659826E+01  0.55640167170E+01  0.14200000000E+01 0.  1.
        -11    1    1    2    0    0 -0.93451425139E+01 -0.40355028295E+01  0.62013282716E+01  0.11919456543E+02  0.51100000000E-03 0.  1.
         11    1    1    2    0    0  0.93451425139E+01  0.40355028295E+01  0.71737834030E+01  0.12453117693E+02  0.51100000000E-03 0. -1.
<mgrwt>
<rscale>  0 0.20374709E+02</rscale>
<asrwt>0</asrwt>
<pdfrwt beam="1">  1        4 0.29036681E-02 0.20374709E+02</pdfrwt>
<pdfrwt beam="2">  1       -4 0.84595867E-03 0.20374709E+02</pdfrwt>
<totfact> 0.12285215E+06</totfact>
</mgrwt>
</event>
<event>
 5    1  0.1154861E-006  0.2000028E+02  0.7818608E-02  0.1745322E+00
         -4   -1    0    0    0  501 -0.00000000000E+00  0.00000000000E+00  0.28385705259E+02  0.28421200943E+02  0.14200000000E+01 0. -1.
          4   -1    0    0  501    0  0.00000000000E+00 -0.00000000000E+00 -0.33405720803E+01  0.36298514878E+01  0.14200000000E+01 0.  1.
       1023    2    1    2    0    0  0.00000000000E+00  0.00000000000E+00  0.25045133178E+02  0.32051052431E+02  0.20000281648E+02 0.  0.
        -11    1    3    3    0    0  0.38438286933E+01 -0.92317856768E+01  0.12592976417E+02  0.16080545424E+02  0.51100000000E-03 0.  1.
         11    1    3    3    0    0 -0.38438286933E+01  0.92317856768E+01  0.12452156761E+02  0.15970507007E+02  0.51100000000E-03 0. -1.
<mgrwt>
<rscale>  0 0.20000282E+02</rscale>
<asrwt>0</asrwt>
<pdfrwt beam="2">  1        4 0.53891684E-03 0.20000282E+02</pdfrwt>
<pdfrwt beam="1">  1       -4 0.43920145E-02 0.20000282E+02</pdfrwt>
<totfact> 0.12349504E+06</totfact>
</mgrwt>
</event>
<event>
 5    1  0.1169720E-006  0.2000071E+02  0.7818608E-02  0.1745314E+00
         -4   -1    0    0    0  501 -0.00000000000E+00  0.00000000000E+00  0.32506002117E+01  0.35472245117E+01  0.14200000000E+01 0. -1.
          4   -1    0    0  501    0  0.00000000000E+00 -0.00000000000E+00 -0.29108575104E+02  0.29143190364E+02  0.14200000000E+01 0.  1.
       1023    2    1    2    0    0  0.00000000000E+00  0.00000000000E+00 -0.25857974892E+02  0.32690414875E+02  0.20000708968E+02 0.  0.
        -11    1    3    3    0    0 -0.44871787044E+00 -0.99902702795E+01 -0.12903584512E+02  0.16325113829E+02  0.51100000000E-03 0. -1.
         11    1    3    3    0    0  0.44871787044E+00  0.99902702795E+01 -0.12954390380E+02  0.16365301047E+02  0.51100000000E-03 0.  1.
<mgrwt>
<rscale>  0 0.20000709E+02</rscale>
<asrwt>0</asrwt>
<pdfrwt beam="2">  1        4 0.45037221E-02 0.20000709E+02</pdfrwt>
<pdfrwt beam="1">  1       -4 0.52557233E-03 0.20000709E+02</pdfrwt>
<totfact> 0.12316464E+06</totfact>
</mgrwt>
</event>
<event>
 4    1  0.1154861E-006  0.2003773E+02  0.7818608E-02  0.1744579E+00
         -4   -1    0    0    0  501 -0.00000000000E+00  0.00000000000E+00  0.85529089556E+01  0.86699856749E+01  0.14200000000E+01 0. -1.
          4   -1    0    0  501    0  0.00000000000E+00 -0.00000000000E+00 -0.11495239653E+02  0.11582613465E+02  0.14200000000E+01 0.  1.
        -11    1    1    2    0    0  0.49615387127E+01 -0.86990243849E+01 -0.17705231217E+01  0.10169790757E+02  0.51100000000E-03 0.  1.
         11    1    1    2    0    0 -0.49615387127E+01  0.86990243849E+01 -0.11718075759E+01  0.10082808384E+02  0.51100000000E-03 0. -1.
<mgrwt>
<rscale>  0 0.20037726E+02</rscale>
<asrwt>0</asrwt>
<pdfrwt beam="2">  1        4 0.17842254E-02 0.20037726E+02</pdfrwt>
<pdfrwt beam="1">  1       -4 0.13315591E-02 0.20037726E+02</pdfrwt>
<totfact> 0.12949093E+06</totfact>
</mgrwt>
</event>
<event>
 5    1  0.1154861E-006  0.2000066E+02  0.7818608E-02  0.1745315E+00
         -4   -1    0    0    0  501 -0.00000000000E+00  0.00000000000E+00  0.13212185678E+02  0.13288274922E+02  0.14200000000E+01 0.  1.
          4   -1    0    0  501    0  0.00000000000E+00 -0.00000000000E+00 -0.74037838298E+01  0.75387276776E+01  0.14200000000E+01 0. -1.
       1023    2    1    2    0    0  0.00000000000E+00  0.00000000000E+00  0.58084018486E+01  0.20827002600E+02  0.20000662620E+02 0.  0.
        -11    1    3    3    0    0 -0.99931781238E+01 -0.37744809294E+00  0.29286213617E+01  0.10420311868E+02  0.51100000000E-03 0.  1.
         11    1    3    3    0    0  0.99931781238E+01  0.37744809294E+00  0.28797804869E+01  0.10406690732E+02  0.51100000000E-03 0. -1.
<mgrwt>
<rscale>  0 0.20000663E+02</rscale>
<asrwt>0</asrwt>
<pdfrwt beam="2">  1        4 0.11552770E-02 0.20000663E+02</pdfrwt>
<pdfrwt beam="1">  1       -4 0.20488772E-02 0.20000663E+02</pdfrwt>
<totfact> 0.12964101E+06</totfact>
</mgrwt>
</event>
<event>
 5    1  0.1154861E-006  0.2000200E+02  0.7818608E-02  0.1745288E+00
         -4   -1    0    0    0  501 -0.00000000000E+00  0.00000000000E+00  0.10130677924E+01  0.17443355044E+01  0.14200000000E+01 0. -1.
          4   -1    0    0  501    0  0.00000000000E+00 -0.00000000000E+00 -0.71806339071E+02  0.71820378242E+02  0.14200000000E+01 0.  1.
       1023    2    1    2    0    0  0.00000000000E+00  0.00000000000E+00 -0.70793271279E+02  0.73564713746E+02  0.20001996156E+02 0.  0.
        -11    1    3    3    0    0 -0.35581394244E+01  0.93462091986E+01 -0.35068093674E+02  0.36466192243E+02  0.51100000000E-03 0. -1.
         11    1    3    3    0    0  0.35581394244E+01 -0.93462091986E+01 -0.35725177605E+02  0.37098521503E+02  0.51100000000E-03 0.  1.
<mgrwt>
<rscale>  0 0.20001996E+02</rscale>
<asrwt>0</asrwt>
<pdfrwt beam="2">  1        4 0.11104457E-01 0.20001996E+02</pdfrwt>
<pdfrwt beam="1">  1       -4 0.21318794E-03 0.20001996E+02</pdfrwt>
<totfact> 0.10624590E+06</totfact>
</mgrwt>
</event>
<event>
 5    1  0.1154861E-006  0.2001121E+02  0.7818608E-02  0.1745105E+00
         -4   -1    0    0    0  501 -0.00000000000E+00  0.00000000000E+00  0.12484466840E+02  0.12564963680E+02  0.14200000000E+01 0. -1.
          4   -1    0    0  501    0  0.00000000000E+00 -0.00000000000E+00 -0.78487533199E+01  0.79761725581E+01  0.14200000000E+01 0.  1.
       1023    2    1    2    0    0  0.00000000000E+00  0.00000000000E+00  0.46357135196E+01  0.20541136238E+02  0.20011207812E+02 0.  0.
        -11    1    3    3    0    0  0.56163529111E+01 -0.82767033379E+01  0.25792996178E+01  0.10329570414E+02  0.51100000000E-03 0. -1.
         11    1    3    3    0    0 -0.56163529111E+01  0.82767033379E+01  0.20564139018E+01  0.10211565823E+02  0.51100000000E-03 0.  1.
<mgrwt>
<rscale>  0 0.20011208E+02</rscale>
<asrwt>0</asrwt>
<pdfrwt beam="2">  1        4 0.12234940E-02 0.20011208E+02</pdfrwt>
<pdfrwt beam="1">  1       -4 0.19366808E-02 0.20011208E+02</pdfrwt>
<totfact> 0.12967051E+06</totfact>
</mgrwt>
</event>
<event>
 5    1  0.1154861E-006  0.2000090E+02  0.7818608E-02  0.1745310E+00
          4   -1    0    0  501    0  0.00000000000E+00  0.00000000000E+00  0.36675354664E+01  0.39328382115E+01  0.14200000000E+01 0.  1.
         -4   -1    0    0    0  501 -0.00000000000E+00 -0.00000000000E+00 -0.26031546281E+02  0.26070247444E+02  0.14200000000E+01 0. -1.
       1023    2    1    2    0    0  0.00000000000E+00  0.00000000000E+00 -0.22364010815E+02  0.30003085656E+02  0.20000904208E+02 0.  0.
        -11    1    3    3    0    0 -0.98837879709E+01  0.15221496679E+01 -0.11261915895E+02  0.15061107335E+02  0.51100000000E-03 0.  1.
         11    1    3    3    0    0  0.98837879709E+01 -0.15221496679E+01 -0.11102094920E+02  0.14941978321E+02  0.51100000000E-03 0. -1.
<mgrwt>
<rscale>  0 0.20000904E+02</rscale>
<asrwt>0</asrwt>
<pdfrwt beam="1">  1        4 0.58762116E-03 0.20000904E+02</pdfrwt>
<pdfrwt beam="2">  1       -4 0.40282381E-02 0.20000904E+02</pdfrwt>
<totfact> 0.12454435E+06</totfact>
</mgrwt>
</event>
<event>
 5    1  0.1154861E-006  0.2000419E+02  0.7818608E-02  0.1745245E+00
         -4   -1    0    0    0  501 -0.00000000000E+00  0.00000000000E+00  0.13759044985E+01  0.19772488941E+01  0.14200000000E+01 0.  1.
          4   -1    0    0  501    0  0.00000000000E+00 -0.00000000000E+00 -0.59058957936E+02  0.59076026546E+02  0.14200000000E+01 0.  1.
       1023    2    1    2    0    0  0.00000000000E+00  0.00000000000E+00 -0.57683053437E+02  0.61053275440E+02  0.20004194263E+02 0.  0.
        -11    1    3    3    0    0 -0.97859492276E+01  0.20666503657E+01 -0.29079912007E+02  0.30751863823E+02  0.51100000000E-03 0. -1.
         11    1    3    3    0    0  0.97859492276E+01 -0.20666503657E+01 -0.28603141430E+02  0.30301411617E+02  0.51100000000E-03 0.  1.
<mgrwt>
<rscale>  0 0.20004194E+02</rscale>
<asrwt>0</asrwt>
<pdfrwt beam="2">  1        4 0.91335621E-02 0.20004194E+02</pdfrwt>
<pdfrwt beam="1">  1       -4 0.25924789E-03 0.20004194E+02</pdfrwt>
<totfact> 0.11073929E+06</totfact>
</mgrwt>
</event>
<event>
 5    1  0.1154861E-006  0.2000016E+02  0.7818608E-02  0.1745325E+00
          4   -1    0    0  501    0  0.00000000000E+00  0.00000000000E+00  0.45004428740E+00  0.14896106406E+01  0.14200000000E+01 0. -1.
         -4   -1    0    0    0  501 -0.00000000000E+00 -0.00000000000E+00 -0.10206559021E+03  0.10207546769E+03  0.14200000000E+01 0.  1.
       1023    2    1    2    0    0  0.00000000000E+00  0.00000000000E+00 -0.10161554592E+03  0.10356507833E+03  0.20000156931E+02 0.  0.
        -11    1    3    3    0    0  0.29126717760E+01 -0.95664225413E+01 -0.50609106179E+02  0.51587612133E+02  0.51100000000E-03 0.  1.
         11    1    3    3    0    0 -0.29126717760E+01  0.95664225413E+01 -0.51006439742E+02  0.51977466199E+02  0.51100000000E-03 0. -1.
<mgrwt>
<rscale>  0 0.20000157E+02</rscale>
<asrwt>0</asrwt>
<pdfrwt beam="1">  1        4 0.14996411E-03 0.20000157E+02</pdfrwt>
<pdfrwt beam="2">  1       -4 0.15783116E-01 0.20000157E+02</pdfrwt>
<totfact> 0.97007473E+05</totfact>
</mgrwt>
</event>
<event>
 5    1  0.1154861E-006  0.2000028E+02  0.7818608E-02  0.1745323E+00
         -4   -1    0    0    0  501 -0.00000000000E+00  0.00000000000E+00  0.22019236487E+02  0.22064976217E+02  0.14200000000E+01 0. -1.
          4   -1    0    0  501    0  0.00000000000E+00 -0.00000000000E+00 -0.43787953175E+01  0.46032866989E+01  0.14200000000E+01 0.  1.
       1023    2    1    2    0    0  0.00000000000E+00  0.00000000000E+00  0.17640441170E+02  0.26668262916E+02  0.20000277056E+02 0.  0.
        -11    1    3    3    0    0  0.96877648034E+01 -0.24797314398E+01  0.87798775271E+01  0.13307445455E+02  0.51100000000E-03 0.  1.
         11    1    3    3    0    0 -0.96877648034E+01  0.24797314398E+01  0.88605636426E+01  0.13360817461E+02  0.51100000000E-03 0. -1.
<mgrwt>
<rscale>  0 0.20000277E+02</rscale>
<asrwt>0</asrwt>
<pdfrwt beam="2">  1        4 0.69444781E-03 0.20000277E+02</pdfrwt>
<pdfrwt beam="1">  1       -4 0.34083619E-02 0.20000277E+02</pdfrwt>
<totfact> 0.12633194E+06</totfact>
</mgrwt>
</event>
<event>
 5    1  0.1154861E-006  0.2000077E+02  0.7818608E-02  0.1745313E+00
          4   -1    0    0  501    0  0.00000000000E+00  0.00000000000E+00  0.34131216739E+02  0.34160742909E+02  0.14200000000E+01 0.  1.
         -4   -1    0    0    0  501 -0.00000000000E+00 -0.00000000000E+00 -0.27253529612E+01  0.30731008385E+01  0.14200000000E+01 0. -1.
       1023    2    1    2    0    0  0.00000000000E+00  0.00000000000E+00  0.31405863778E+02  0.37233843748E+02  0.20000771000E+02 0.  0.
        -11    1    3    3    0    0 -0.73943013540E+01 -0.67323837336E+01  0.15858982249E+02  0.18748546650E+02  0.51100000000E-03 0.  1.
         11    1    3    3    0    0  0.73943013540E+01  0.67323837336E+01  0.15546881529E+02  0.18485297098E+02  0.51100000000E-03 0. -1.
<mgrwt>
<rscale>  0 0.20000771E+02</rscale>
<asrwt>0</asrwt>
<pdfrwt beam="1">  1        4 0.52799777E-02 0.20000771E+02</pdfrwt>
<pdfrwt beam="2">  1       -4 0.44830613E-03 0.20000771E+02</pdfrwt>
<totfact> 0.12092411E+06</totfact>
</mgrwt>
</event>
<event>
 4    1  0.1154861E-006  0.2032273E+02  0.7818608E-02  0.1738985E+00
          4   -1    0    0  501    0  0.00000000000E+00  0.00000000000E+00  0.78256690477E+01  0.79534581186E+01  0.14200000000E+01 0. -1.
         -4   -1    0    0    0  501 -0.00000000000E+00 -0.00000000000E+00 -0.12920325800E+02  0.12998123663E+02  0.14200000000E+01 0. -1.
        -11    1    1    2    0    0  0.14004621292E+01  0.10038379651E+02 -0.18017969796E+01  0.10294504981E+02  0.51100000000E-03 0. -1.
         11    1    1    2    0    0 -0.14004621292E+01 -0.10038379651E+02 -0.32928597724E+01  0.10657076801E+02  0.51100000000E-03 0.  1.
<mgrwt>
<rscale>  0 0.20322727E+02</rscale>
<asrwt>0</asrwt>
<pdfrwt beam="1">  1        4 0.12197635E-02 0.20322727E+02</pdfrwt>
<pdfrwt beam="2">  1       -4 0.20035568E-02 0.20322727E+02</pdfrwt>
<totfact> 0.12539794E+06</totfact>
</mgrwt>
</event>
<event>
 5    1  0.1167491E-006  0.2000119E+02  0.7818608E-02  0.1745304E+00
         -4   -1    0    0    0  501 -0.00000000000E+00  0.00000000000E+00  0.28420856721E+02  0.28456308559E+02  0.14200000000E+01 0. -1.
          4   -1    0    0  501    0  0.00000000000E+00 -0.00000000000E+00 -0.33364210217E+01  0.36260316097E+01  0.14200000000E+01 0.  1.
       1023    2    1    2    0    0  0.00000000000E+00  0.00000000000E+00  0.25084435700E+02  0.32082340168E+02  0.20001190872E+02 0.  0.
        -11    1    3    3    0    0 -0.78312495249E+01 -0.62191714687E+01  0.12659497330E+02  0.16132868182E+02  0.51100000000E-03 0. -1.
         11    1    3    3    0    0  0.78312495249E+01  0.62191714687E+01  0.12424938370E+02  0.15949471986E+02  0.51100000000E-03 0.  1.
<mgrwt>
<rscale>  0 0.20001191E+02</rscale>
<asrwt>0</asrwt>
<pdfrwt beam="2">  1        4 0.53830033E-03 0.20001191E+02</pdfrwt>
<pdfrwt beam="1">  1       -4 0.43974444E-02 0.20001191E+02</pdfrwt>
<totfact> 0.12346768E+06</totfact>
</mgrwt>
</event>
<event>
 5    1  0.1154861E-006  0.2000084E+02  0.7818608E-02  0.1745311E+00
         -4   -1    0    0    0  501 -0.00000000000E+00  0.00000000000E+00  0.52485238710E+00  0.15138923437E+01  0.14200000000E+01 0. -1.
          4   -1    0    0  501    0  0.00000000000E+00 -0.00000000000E+00 -0.97111064503E+02  0.97121445876E+02  0.14200000000E+01 0.  1.
       1023    2    1    2    0    0  0.00000000000E+00  0.00000000000E+00 -0.96586212116E+02  0.98635338219E+02  0.20000839349E+02 0.  0.
        -11    1    3    3    0    0 -0.94672993232E+01  0.32214562767E+01 -0.48437423932E+02  0.49458988813E+02  0.51100000000E-03 0. -1.
         11    1    3    3    0    0  0.94672993232E+01 -0.32214562767E+01 -0.48148788184E+02  0.49176349406E+02  0.51100000000E-03 0.  1.
<mgrwt>
<rscale>  0 0.20000839E+02</rscale>
<asrwt>0</asrwt>
<pdfrwt beam="2">  1        4 0.15017035E-01 0.20000839E+02</pdfrwt>
<pdfrwt beam="1">  1       -4 0.15762516E-03 0.20000839E+02</pdfrwt>
<totfact> 0.98394589E+05</totfact>
</mgrwt>
</event>
<event>
 5    1  0.1154861E-006  0.2000423E+02  0.7818608E-02  0.1745244E+00
          4   -1    0    0  501    0  0.00000000000E+00  0.00000000000E+00  0.13595017677E+01  0.19658700507E+01  0.14200000000E+01 0. -1.
         -4   -1    0    0    0  501 -0.00000000000E+00 -0.00000000000E+00 -0.59552695316E+02  0.59569622454E+02  0.14200000000E+01 0.  1.
       1023    2    1    2    0    0  0.00000000000E+00  0.00000000000E+00 -0.58193193548E+02  0.61535492505E+02  0.20004226117E+02 0.  0.
        -11    1    3    3    0    0  0.22697446498E+01 -0.97407791100E+01 -0.29367346877E+02  0.31023790569E+02  0.51100000000E-03 0. -1.
         11    1    3    3    0    0 -0.22697446498E+01  0.97407791100E+01 -0.28825846671E+02  0.30511701936E+02  0.51100000000E-03 0.  1.
<mgrwt>
<rscale>  0 0.20004226E+02</rscale>
<asrwt>0</asrwt>
<pdfrwt beam="1">  1        4 0.25709997E-03 0.20004226E+02</pdfrwt>
<pdfrwt beam="2">  1       -4 0.92098972E-02 0.20004226E+02</pdfrwt>
<totfact> 0.11055595E+06</totfact>
</mgrwt>
</event>
<event>
 5    1  0.1154861E-006  0.2000725E+02  0.7818608E-02  0.1745184E+00
          4   -1    0    0  501    0  0.00000000000E+00  0.00000000000E+00  0.22477490741E+02  0.22522299838E+02  0.14200000000E+01 0. -1.
         -4   -1    0    0    0  501 -0.00000000000E+00 -0.00000000000E+00 -0.42882668381E+01  0.45172593987E+01  0.14200000000E+01 0.  1.
       1023    2    1    2    0    0  0.00000000000E+00  0.00000000000E+00  0.18189223903E+02  0.27039559237E+02  0.20007246126E+02 0.  0.
        -11    1    3    3    0    0  0.95060291302E+01  0.31148947337E+01  0.91931418356E+01  0.13586059624E+02  0.51100000000E-03 0. -1.
         11    1    3    3    0    0 -0.95060291302E+01 -0.31148947337E+01  0.89960820671E+01  0.13453499613E+02  0.51100000000E-03 0.  1.
<mgrwt>
<rscale>  0 0.20007246E+02</rscale>
<asrwt>0</asrwt>
<pdfrwt beam="1">  1        4 0.34791371E-02 0.20007246E+02</pdfrwt>
<pdfrwt beam="2">  1       -4 0.68079503E-03 0.20007246E+02</pdfrwt>
<totfact> 0.12604055E+06</totfact>
</mgrwt>
</event>
<event>
 5    1  0.1154861E-006  0.2000150E+02  0.7818608E-02  0.1745298E+00
          4   -1    0    0  501    0  0.00000000000E+00  0.00000000000E+00  0.69563787915E+01  0.70998313988E+01  0.14200000000E+01 0. -1.
         -4   -1    0    0    0  501 -0.00000000000E+00 -0.00000000000E+00 -0.14051115991E+02  0.14122686026E+02  0.14200000000E+01 0.  1.
       1023    2    1    2    0    0  0.00000000000E+00  0.00000000000E+00 -0.70947371997E+01  0.21222517425E+02  0.20001498692E+02 0.  0.
        -11    1    3    3    0    0 -0.81754832814E+01  0.57598786427E+01 -0.35644233487E+01  0.10616960155E+02  0.51100000000E-03 0. -1.
         11    1    3    3    0    0  0.81754832814E+01 -0.57598786427E+01 -0.35303138510E+01  0.10605557270E+02  0.51100000000E-03 0.  1.
<mgrwt>
<rscale>  0 0.20001499E+02</rscale>
<asrwt>0</asrwt>
<pdfrwt beam="1">  1        4 0.10867523E-02 0.20001499E+02</pdfrwt>
<pdfrwt beam="2">  1       -4 0.21782503E-02 0.20001499E+02</pdfrwt>
<totfact> 0.12939663E+06</totfact>
</mgrwt>
</event>
<event>
 5    1  0.1154861E-006  0.2000498E+02  0.7818608E-02  0.1745229E+00
         -4   -1    0    0    0  501 -0.00000000000E+00  0.00000000000E+00  0.46137907283E+01  0.48273662472E+01  0.14200000000E+01 0.  1.
          4   -1    0    0  501    0  0.00000000000E+00 -0.00000000000E+00 -0.20956252204E+02  0.21004306855E+02  0.14200000000E+01 0. -1.
       1023    2    1    2    0    0  0.00000000000E+00  0.00000000000E+00 -0.16342461476E+02  0.25831673102E+02  0.20004981583E+02 0.  0.
        -11    1    3    3    0    0 -0.30162252889E+01  0.95348244082E+01 -0.84273120875E+01  0.13077846947E+02  0.51100000000E-03 0. -1.
         11    1    3    3    0    0  0.30162252889E+01 -0.95348244082E+01 -0.79151493884E+01  0.12753826155E+02  0.51100000000E-03 0.  1.
<mgrwt>
<rscale>  0 0.20004982E+02</rscale>
<asrwt>0</asrwt>
<pdfrwt beam="2">  1        4 0.32441641E-02 0.20004982E+02</pdfrwt>
<pdfrwt beam="1">  1       -4 0.72993937E-03 0.20004982E+02</pdfrwt>
<totfact> 0.12673018E+06</totfact>
</mgrwt>
</event>
<event>
 5    1  0.1154861E-006  0.2000016E+02  0.7818608E-02  0.1745325E+00
         -4   -1    0    0    0  501 -0.00000000000E+00  0.00000000000E+00  0.10115595518E+03  0.10116592148E+03  0.14200000000E+01 0. -1.
          4   -1    0    0  501    0  0.00000000000E+00 -0.00000000000E+00 -0.46339667649E+00  0.14936989254E+01  0.14200000000E+01 0.  1.
       1023    2    1    2    0    0  0.00000000000E+00  0.00000000000E+00  0.10069255851E+03  0.10265962041E+03  0.20000158082E+02 0.  0.
        -11    1    3    3    0    0  0.39869876170E+01  0.91708658014E+01  0.50207523200E+02  0.51193712856E+02  0.51100000000E-03 0.  1.
         11    1    3    3    0    0 -0.39869876170E+01 -0.91708658014E+01  0.50485035306E+02  0.51465907550E+02  0.51100000000E-03 0. -1.
<mgrwt>
<rscale>  0 0.20000158E+02</rscale>
<asrwt>0</asrwt>
<pdfrwt beam="2">  1        4 0.15131249E-03 0.20000158E+02</pdfrwt>
<pdfrwt beam="1">  1       -4 0.15642472E-01 0.20000158E+02</pdfrwt>
<totfact> 0.97260137E+05</totfact>
</mgrwt>
</event>
<event>
 5    1  0.1154861E-006  0.2000030E+02  0.7818608E-02  0.1745322E+00
          4   -1    0    0  501    0  0.00000000000E+00  0.00000000000E+00  0.84903385659E+01  0.86082663158E+01  0.14200000000E+01 0.  1.
         -4   -1    0    0    0  501 -0.00000000000E+00 -0.00000000000E+00 -0.11535448049E+02  0.11622519593E+02  0.14200000000E+01 0. -1.
       1023    2    1    2    0    0  0.00000000000E+00  0.00000000000E+00 -0.30451094829E+01  0.20230785909E+02  0.20000300166E+02 0.  0.
        -11    1    3    3    0    0  0.98176862044E+01  0.19015555739E+01 -0.15112270262E+01  0.10113687923E+02  0.51100000000E-03 0.  1.
         11    1    3    3    0    0 -0.98176862044E+01 -0.19015555739E+01 -0.15338824567E+01  0.10117097986E+02  0.51100000000E-03 0. -1.
<mgrwt>
<rscale>  0 0.20000300E+02</rscale>
<asrwt>0</asrwt>
<pdfrwt beam="1">  1        4 0.13219751E-02 0.20000300E+02</pdfrwt>
<pdfrwt beam="2">  1       -4 0.17904535E-02 0.20000300E+02</pdfrwt>
<totfact> 0.12999910E+06</totfact>
</mgrwt>
</event>
<event>
 5    1  0.1154861E-006  0.2000009E+02  0.7818608E-02  0.1745326E+00
          4   -1    0    0  501    0  0.00000000000E+00  0.00000000000E+00  0.11377275833E+03  0.11378161951E+03  0.14200000000E+01 0. -1.
         -4   -1    0    0    0  501 -0.00000000000E+00 -0.00000000000E+00 -0.29063275368E+00  0.14494369243E+01  0.14200000000E+01 0.  1.
       1023    2    1    2    0    0  0.00000000000E+00  0.00000000000E+00  0.11348212557E+03  0.11523105643E+03  0.20000088533E+02 0.  0.
        -11    1    3    3    0    0 -0.99852187535E+01  0.54424777313E+00  0.56794455170E+02  0.57668110230E+02  0.51100000000E-03 0.  1.
         11    1    3    3    0    0  0.99852187535E+01 -0.54424777313E+00  0.56687670405E+02  0.57562946201E+02  0.51100000000E-03 0. -1.
<mgrwt>
<rscale>  0 0.20000089E+02</rscale>
<asrwt>0</asrwt>
<pdfrwt beam="1">  1        4 0.17593310E-01 0.20000089E+02</pdfrwt>
<pdfrwt beam="2">  1       -4 0.13453323E-03 0.20000089E+02</pdfrwt>
<totfact> 0.93875289E+05</totfact>
</mgrwt>
</event>
<event>
 5    1  0.1154861E-006  0.2000072E+02  0.7818608E-02  0.1745314E+00
         -4   -1    0    0    0  501 -0.00000000000E+00  0.00000000000E+00  0.80676248586E+00  0.16331765699E+01  0.14200000000E+01 0.  1.
          4   -1    0    0  501    0  0.00000000000E+00 -0.00000000000E+00 -0.81140408992E+02  0.81152833415E+02  0.14200000000E+01 0. -1.
       1023    2    1    2    0    0  0.00000000000E+00  0.00000000000E+00 -0.80333646506E+02  0.82786009985E+02  0.20000717196E+02 0.  0.
        -11    1    3    3    0    0 -0.99865937278E+01 -0.52055752550E+00 -0.39900581906E+02  0.41134650493E+02  0.51100000000E-03 0. -1.
         11    1    3    3    0    0  0.99865937278E+01  0.52055752550E+00 -0.40433064599E+02  0.41651359493E+02  0.51100000000E-03 0.  1.
<mgrwt>
<rscale>  0 0.20000717E+02</rscale>
<asrwt>0</asrwt>
<pdfrwt beam="2">  1        4 0.12547662E-01 0.20000717E+02</pdfrwt>
<pdfrwt beam="1">  1       -4 0.18864341E-03 0.20000717E+02</pdfrwt>
<totfact> 0.10320289E+06</totfact>
</mgrwt>
</event>
<event>
 5    1  0.1179216E-006  0.2000138E+02  0.7818608E-02  0.1745301E+00
          4   -1    0    0  501    0  0.00000000000E+00  0.00000000000E+00  0.99726666682E+01  0.10073255704E+02  0.14200000000E+01 0.  1.
         -4   -1    0    0    0  501 -0.00000000000E+00 -0.00000000000E+00 -0.98265854529E+01  0.99286545747E+01  0.14200000000E+01 0. -1.
       1023    2    1    2    0    0  0.00000000000E+00  0.00000000000E+00  0.14608121534E+00  0.20001910279E+02  0.20001376829E+02 0.  0.
        -11    1    3    3    0    0 -0.99287389485E+01  0.11966423186E+01  0.28783799790E-01  0.10000631916E+02  0.51100000000E-03 0.  1.
         11    1    3    3    0    0  0.99287389485E+01 -0.11966423186E+01  0.11729741555E+00  0.10001278363E+02  0.51100000000E-03 0. -1.
<mgrwt>
<rscale>  0 0.20001377E+02</rscale>
<asrwt>0</asrwt>
<pdfrwt beam="1">  1        4 0.15498455E-02 0.20001377E+02</pdfrwt>
<pdfrwt beam="2">  1       -4 0.15273715E-02 0.20001377E+02</pdfrwt>
<totfact> 0.13012102E+06</totfact>
</mgrwt>
</event>
<event>
 4    1  0.1154861E-006  0.2007593E+02  0.7818608E-02  0.1743822E+00
         -4   -1    0    0    0  501 -0.00000000000E+00  0.00000000000E+00  0.35823180067E+01  0.38534922215E+01  0.14200000000E+01 0.  1.
          4   -1    0    0  501    0  0.00000000000E+00 -0.00000000000E+00 -0.26810839616E+02  0.26848417475E+02  0.14200000000E+01 0. -1.
        -11    1    1    2    0    0 -0.62486286106E+01  0.78471648478E+01 -0.11047381483E+02  0.14922063984E+02  0.51100000000E-03 0. -1.
         11    1    1    2    0    0  0.62486286106E+01 -0.78471648478E+01 -0.12181140126E+02  0.15779845712E+02  0.51100000000E-03 0.  1.
<mgrwt>
<rscale>  0 0.20075932E+02</rscale>
<asrwt>0</asrwt>
<pdfrwt beam="2">  1        4 0.41484946E-02 0.20075932E+02</pdfrwt>
<pdfrwt beam="1">  1       -4 0.57487602E-03 0.20075932E+02</pdfrwt>
<totfact> 0.12323960E+06</totfact>
</mgrwt>
</event>
<event>
 5    1  0.1169118E-006  0.2000081E+02  0.7818608E-02  0.1745312E+00
         -4   -1    0    0    0  501 -0.00000000000E+00  0.00000000000E+00  0.38820601665E+01  0.41336171976E+01  0.14200000000E+01 0. -1.
          4   -1    0    0  501    0  0.00000000000E+00 -0.00000000000E+00 -0.24680508954E+02  0.24721325253E+02  0.14200000000E+01 0.  1.
       1023    2    1    2    0    0  0.00000000000E+00  0.00000000000E+00 -0.20798448788E+02  0.28854942450E+02  0.20000805779E+02 0.  0.
        -11    1    3    3    0    0 -0.91615710752E+01 -0.40090508269E+01 -0.10448878812E+02  0.14463261796E+02  0.51100000000E-03 0. -1.
         11    1    3    3    0    0  0.91615710752E+01  0.40090508269E+01 -0.10349569976E+02  0.14391680654E+02  0.51100000000E-03 0.  1.
<mgrwt>
<rscale>  0 0.20000806E+02</rscale>
<asrwt>0</asrwt>
<pdfrwt beam="2">  1        4 0.38194915E-02 0.20000806E+02</pdfrwt>
<pdfrwt beam="1">  1       -4 0.61973030E-03 0.20000806E+02</pdfrwt>
<totfact> 0.12514960E+06</totfact>
</mgrwt>
</event>
<event>
 5    1  0.1196889E-006  0.2000140E+02  0.7818608E-02  0.1745300E+00
         -4   -1    0    0    0  501 -0.00000000000E+00  0.00000000000E+00  0.91743362152E+01  0.92835793199E+01  0.14200000000E+01 0. -1.
          4   -1    0    0  501    0  0.00000000000E+00 -0.00000000000E+00 -0.10680461280E+02  0.10774444448E+02  0.14200000000E+01 0.  1.
       1023    2    1    2    0    0  0.00000000000E+00  0.00000000000E+00 -0.15061250653E+01  0.20058023768E+02  0.20001397570E+02 0.  0.
        -11    1    3    3    0    0  0.32015888705E+01 -0.94738450700E+01 -0.65245791385E+00  0.10021457643E+02  0.51100000000E-03 0.  1.
         11    1    3    3    0    0 -0.32015888705E+01  0.94738450700E+01 -0.85366715147E+00  0.10036566125E+02  0.51100000000E-03 0. -1.
<mgrwt>
<rscale>  0 0.20001398E+02</rscale>
<asrwt>0</asrwt>
<pdfrwt beam="2">  1        4 0.16587807E-02 0.20001398E+02</pdfrwt>
<pdfrwt beam="1">  1       -4 0.14270691E-02 0.20001398E+02</pdfrwt>
<totfact> 0.13008745E+06</totfact>
</mgrwt>
</event>
<event>
 5    1  0.1154861E-006  0.2000505E+02  0.7818608E-02  0.1745228E+00
          4   -1    0    0  501    0  0.00000000000E+00  0.00000000000E+00  0.16208646897E+02  0.16270729370E+02  0.14200000000E+01 0. -1.
         -4   -1    0    0    0  501 -0.00000000000E+00 -0.00000000000E+00 -0.60159668519E+01  0.61812828088E+01  0.14200000000E+01 0.  1.
       1023    2    1    2    0    0  0.00000000000E+00  0.00000000000E+00  0.10192680045E+02  0.22452012179E+02  0.20005052471E+02 0.  0.
        -11    1    3    3    0    0  0.50306934307E+00  0.99888353312E+01  0.49351759392E+01  0.11152841425E+02  0.51100000000E-03 0. -1.
         11    1    3    3    0    0 -0.50306934307E+00 -0.99888353312E+01  0.52575041056E+01  0.11299170754E+02  0.51100000000E-03 0.  1.
<mgrwt>
<rscale>  0 0.20005052E+02</rscale>
<asrwt>0</asrwt>
<pdfrwt beam="1">  1        4 0.25111302E-02 0.20005052E+02</pdfrwt>
<pdfrwt beam="2">  1       -4 0.94302556E-03 0.20005052E+02</pdfrwt>
<totfact> 0.12863441E+06</totfact>
</mgrwt>
</event>
<event>
 5    1  0.1154861E-006  0.2000055E+02  0.7818608E-02  0.1745317E+00
         -4   -1    0    0    0  501 -0.00000000000E+00  0.00000000000E+00  0.90476597698E+00  0.16837462615E+01  0.14200000000E+01 0.  1.
          4   -1    0    0  501    0  0.00000000000E+00 -0.00000000000E+00 -0.76481159098E+02  0.76494340293E+02  0.14200000000E+01 0.  1.
       1023    2    1    2    0    0  0.00000000000E+00  0.00000000000E+00 -0.75576393121E+02  0.78178086555E+02  0.20000550499E+02 0.  0.
        -11    1    3    3    0    0  0.93344977558E+01  0.35876096478E+01 -0.37626395772E+02  0.38932627068E+02  0.51100000000E-03 0.  1.
         11    1    3    3    0    0 -0.93344977558E+01 -0.35876096478E+01 -0.37949997349E+02  0.39245459487E+02  0.51100000000E-03 0. -1.
<mgrwt>
<rscale>  0 0.20000550E+02</rscale>
<asrwt>0</asrwt>
<pdfrwt beam="2">  1        4 0.11827264E-01 0.20000550E+02</pdfrwt>
<pdfrwt beam="1">  1       -4 0.20013032E-03 0.20000550E+02</pdfrwt>
<totfact> 0.10470543E+06</totfact>
</mgrwt>
</event>
<event>
 5    1  0.1154861E-006  0.2000600E+02  0.7818608E-02  0.1745209E+00
         -4   -1    0    0    0  501 -0.00000000000E+00  0.00000000000E+00  0.77548453603E+01  0.78837825034E+01  0.14200000000E+01 0.  1.
          4   -1    0    0  501    0  0.00000000000E+00 -0.00000000000E+00 -0.12627457406E+02  0.12707048459E+02  0.14200000000E+01 0. -1.
       1023    2    1    2    0    0  0.00000000000E+00  0.00000000000E+00 -0.48726120462E+01  0.20590830963E+02  0.20005998390E+02 0.  0.
        -11    1    3    3    0    0 -0.17040121613E+01  0.98567462862E+01 -0.24056383426E+01  0.10288158285E+02  0.51100000000E-03 0. -1.
         11    1    3    3    0    0  0.17040121613E+01 -0.98567462862E+01 -0.24669737036E+01  0.10302672678E+02  0.51100000000E-03 0.  1.
<mgrwt>
<rscale>  0 0.20005998E+02</rscale>
<asrwt>0</asrwt>
<pdfrwt beam="2">  1        4 0.19587264E-02 0.20005998E+02</pdfrwt>
<pdfrwt beam="1">  1       -4 0.12090938E-02 0.20005998E+02</pdfrwt>
<totfact> 0.12971007E+06</totfact>
</mgrwt>
</event>
<event>
 5    1  0.1203029E-006  0.2000107E+02  0.7818608E-02  0.1745307E+00
         -4   -1    0    0    0  501 -0.00000000000E+00  0.00000000000E+00  0.45993426447E+01  0.48135592614E+01  0.14200000000E+01 0.  1.
          4   -1    0    0  501    0  0.00000000000E+00 -0.00000000000E+00 -0.21010985355E+02  0.21058915110E+02  0.14200000000E+01 0. -1.
       1023    2    1    2    0    0  0.00000000000E+00  0.00000000000E+00 -0.16411642711E+02  0.25872474371E+02  0.20001072812E+02 0.  0.
        -11    1    3    3    0    0 -0.90901995138E+00 -0.99589662980E+01 -0.82812606192E+01  0.12984090446E+02  0.51100000000E-03 0.  1.
         11    1    3    3    0    0  0.90901995138E+00  0.99589662980E+01 -0.81303820913E+01  0.12888383925E+02  0.51100000000E-03 0. -1.
<mgrwt>
<rscale>  0 0.20001073E+02</rscale>
<asrwt>0</asrwt>
<pdfrwt beam="2">  1        4 0.32526243E-02 0.20001073E+02</pdfrwt>
<pdfrwt beam="1">  1       -4 0.72775629E-03 0.20001073E+02</pdfrwt>
<totfact> 0.12675810E+06</totfact>
</mgrwt>
</event>
<event>
 4    1  0.1154861E-006  0.2021108E+02  0.7818608E-02  0.1741163E+00
         -4   -1    0    0    0  501 -0.00000000000E+00  0.00000000000E+00  0.37829677328E+02  0.37856318980E+02  0.14200000000E+01 0.  1.
          4   -1    0    0  501    0  0.00000000000E+00 -0.00000000000E+00 -0.24831915349E+01  0.28605314540E+01  0.14200000000E+01 0. -1.
        -11    1    1    2    0    0 -0.82111178111E+01  0.58904174630E+01  0.17773749753E+02  0.20445675683E+02  0.51100000000E-03 0. -1.
         11    1    1    2    0    0  0.82111178111E+01 -0.58904174630E+01  0.17572736040E+02  0.20271174751E+02  0.51100000000E-03 0.  1.
<mgrwt>
<rscale>  0 0.20211082E+02</rscale>
<asrwt>0</asrwt>
<pdfrwt beam="2">  1        4 0.41310499E-03 0.20211082E+02</pdfrwt>
<pdfrwt beam="1">  1       -4 0.58510255E-02 0.20211082E+02</pdfrwt>
<totfact> 0.11678248E+06</totfact>
</mgrwt>
</event>
<event>
 5    1  0.1154861E-006  0.2000062E+02  0.7818608E-02  0.1745316E+00
          4   -1    0    0  501    0  0.00000000000E+00  0.00000000000E+00  0.39601995083E+02  0.39627445219E+02  0.14200000000E+01 0.  1.
         -4   -1    0    0    0  501 -0.00000000000E+00 -0.00000000000E+00 -0.22972311620E+01  0.27006797314E+01  0.14200000000E+01 0. -1.
       1023    2    1    2    0    0  0.00000000000E+00  0.00000000000E+00  0.37304763921E+02  0.42328124950E+02  0.20000618755E+02 0.  0.
        -11    1    3    3    0    0  0.53199590435E+01 -0.84676737490E+01  0.18762846859E+02  0.21261417767E+02  0.51100000000E-03 0.  1.
         11    1    3    3    0    0 -0.53199590435E+01  0.84676737490E+01  0.18541917062E+02  0.21066707183E+02  0.51100000000E-03 0. -1.
<mgrwt>
<rscale>  0 0.20000619E+02</rscale>
<asrwt>0</asrwt>
<pdfrwt beam="1">  1        4 0.61256067E-02 0.20000619E+02</pdfrwt>
<pdfrwt beam="2">  1       -4 0.38641239E-03 0.20000619E+02</pdfrwt>
<totfact> 0.11854862E+06</totfact>
</mgrwt>
</event>
<event>
 5    1  0.1154861E-006  0.2000141E+02  0.7818608E-02  0.1745300E+00
         -4   -1    0    0    0  501 -0.00000000000E+00  0.00000000000E+00  0.24320004985E+01  0.28162078092E+01  0.14200000000E+01 0.  1.
          4   -1    0    0  501    0  0.00000000000E+00 -0.00000000000E+00 -0.37715079724E+02  0.37741802270E+02  0.14200000000E+01 0. -1.
       1023    2    1    2    0    0  0.00000000000E+00  0.00000000000E+00 -0.35283079225E+02  0.40558010079E+02  0.20001412499E+02 0.  0.
        -11    1    3    3    0    0  0.47485996920E+01 -0.88014081204E+01 -0.17665642734E+02  0.20299973335E+02  0.51100000000E-03 0. -1.
         11    1    3    3    0    0 -0.47485996920E+01  0.88014081204E+01 -0.17617436492E+02  0.20258036744E+02  0.51100000000E-03 0.  1.
<mgrwt>
<rscale>  0 0.20001412E+02</rscale>
<asrwt>0</asrwt>
<pdfrwt beam="2">  1        4 0.58339295E-02 0.20001412E+02</pdfrwt>
<pdfrwt beam="1">  1       -4 0.40576394E-03 0.20001412E+02</pdfrwt>
<totfact> 0.11935010E+06</totfact>
</mgrwt>
</event>
<event>
 5    1  0.1154861E-006  0.2000007E+02  0.7818608E-02  0.1745327E+00
         -4   -1    0    0    0  501 -0.00000000000E+00  0.00000000000E+00  0.38936057632E+01  0.41444620687E+01  0.14200000000E+01 0.  1.
          4   -1    0    0  501    0  0.00000000000E+00 -0.00000000000E+00 -0.24609812722E+02  0.24650746079E+02  0.14200000000E+01 0. -1.
       1023    2    1    2    0    0  0.00000000000E+00  0.00000000000E+00 -0.20716206959E+02  0.28795208147E+02  0.20000069537E+02 0.  0.
        -11    1    3    3    0    0  0.73428013985E+01 -0.67885002256E+01 -0.10336391478E+02  0.14381983755E+02  0.51100000000E-03 0.  1.
         11    1    3    3    0    0 -0.73428013985E+01  0.67885002256E+01 -0.10379815481E+02  0.14413224392E+02  0.51100000000E-03 0. -1.
<mgrwt>
<rscale>  0 0.20000070E+02</rscale>
<asrwt>0</asrwt>
<pdfrwt beam="2">  1        4 0.38085703E-02 0.20000070E+02</pdfrwt>
<pdfrwt beam="1">  1       -4 0.62146165E-03 0.20000070E+02</pdfrwt>
<totfact> 0.12519063E+06</totfact>
</mgrwt>
</event>
<event>
 5    1  0.1154861E-006  0.2000032E+02  0.7818608E-02  0.1745322E+00
         -4   -1    0    0    0  501 -0.00000000000E+00  0.00000000000E+00  0.67209952780E+01  0.68693651473E+01  0.14200000000E+01 0. -1.
          4   -1    0    0  501    0  0.00000000000E+00 -0.00000000000E+00 -0.14533426240E+02  0.14602632580E+02  0.14200000000E+01 0.  1.
       1023    2    1    2    0    0  0.00000000000E+00  0.00000000000E+00 -0.78124309616E+01  0.21471997727E+02  0.20000315219E+02 0.  0.
        -11    1    3    3    0    0 -0.57138492041E+01 -0.82069428624E+01 -0.38695234406E+01  0.10722648730E+02  0.51100000000E-03 0. -1.
         11    1    3    3    0    0  0.57138492041E+01  0.82069428624E+01 -0.39429075209E+01  0.10749348997E+02  0.51100000000E-03 0.  1.
<mgrwt>
<rscale>  0 0.20000315E+02</rscale>
<asrwt>0</asrwt>
<pdfrwt beam="2">  1        4 0.22526483E-02 0.20000315E+02</pdfrwt>
<pdfrwt beam="1">  1       -4 0.10507359E-02 0.20000315E+02</pdfrwt>
<totfact> 0.12926589E+06</totfact>
</mgrwt>
</event>
<event>
 5    1  0.1154861E-006  0.2000019E+02  0.7818608E-02  0.1745324E+00
          4   -1    0    0  501    0  0.00000000000E+00  0.00000000000E+00  0.23903257561E+00  0.14399779763E+01  0.14200000000E+01 0. -1.
         -4   -1    0    0    0  501 -0.00000000000E+00 -0.00000000000E+00 -0.11791170057E+03  0.11792025072E+03  0.14200000000E+01 0.  1.
       1023    2    1    2    0    0  0.00000000000E+00  0.00000000000E+00 -0.11767266799E+03  0.11936022870E+03  0.20000185073E+02 0.  0.
        -11    1    3    3    0    0  0.40340102374E+00  0.99918738264E+01 -0.58599448040E+02  0.59446577579E+02  0.51100000000E-03 0. -1.
         11    1    3    3    0    0 -0.40340102374E+00 -0.99918738264E+01 -0.59073219952E+02  0.59913651121E+02  0.51100000000E-03 0.  1.
<mgrwt>
<rscale>  0 0.20000185E+02</rscale>
<asrwt>0</asrwt>
<pdfrwt beam="1">  1        4 0.12981246E-03 0.20000185E+02</pdfrwt>
<pdfrwt beam="2">  1       -4 0.18233287E-01 0.20000185E+02</pdfrwt>
<totfact> 0.92817824E+05</totfact>
</mgrwt>
</event>
<event>
 5    1  0.1154861E-006  0.2000105E+02  0.7818608E-02  0.1745307E+00
          4   -1    0    0  501    0  0.00000000000E+00  0.00000000000E+00  0.50997635378E+02  0.51017401091E+02  0.14200000000E+01 0. -1.
         -4   -1    0    0    0  501 -0.00000000000E+00 -0.00000000000E+00 -0.16811591776E+01  0.22006126830E+01  0.14200000000E+01 0.  1.
       1023    2    1    2    0    0  0.00000000000E+00  0.00000000000E+00  0.49316476200E+02  0.53218013774E+02  0.20001054104E+02 0.  0.
        -11    1    3    3    0    0  0.89543685616E+01 -0.44528997444E+01  0.24554892592E+02  0.26513237881E+02  0.51100000000E-03 0.  1.
         11    1    3    3    0    0 -0.89543685616E+01  0.44528997444E+01  0.24761583608E+02  0.26704775894E+02  0.51100000000E-03 0. -1.
<mgrwt>
<rscale>  0 0.20001054E+02</rscale>
<asrwt>0</asrwt>
<pdfrwt beam="1">  1        4 0.78872685E-02 0.20001054E+02</pdfrwt>
<pdfrwt beam="2">  1       -4 0.30011828E-03 0.20001054E+02</pdfrwt>
<totfact> 0.11385757E+06</totfact>
</mgrwt>
</event>
<event>
 5    1  0.1187343E-006  0.2000070E+02  0.7818608E-02  0.1745314E+00
         -4   -1    0    0    0  501 -0.00000000000E+00  0.00000000000E+00  0.56979346931E+01  0.58722108074E+01  0.14200000000E+01 0.  1.
          4   -1    0    0  501    0  0.00000000000E+00 -0.00000000000E+00 -0.17082906698E+02  0.17141823160E+02  0.14200000000E+01 0. -1.
       1023    2    1    2    0    0  0.00000000000E+00  0.00000000000E+00 -0.11384972004E+02  0.23014033967E+02  0.20000704285E+02 0.  0.
        -11    1    3    3    0    0  0.32380252832E+01 -0.94613058124E+01 -0.56038977824E+01  0.11463192663E+02  0.51100000000E-03 0. -1.
         11    1    3    3    0    0 -0.32380252832E+01  0.94613058124E+01 -0.57810742220E+01  0.11550841304E+02  0.51100000000E-03 0.  1.
<mgrwt>
<rscale>  0 0.20000704E+02</rscale>
<asrwt>0</asrwt>
<pdfrwt beam="2">  1        4 0.26460774E-02 0.20000704E+02</pdfrwt>
<pdfrwt beam="1">  1       -4 0.89454324E-03 0.20000704E+02</pdfrwt>
<totfact> 0.12836852E+06</totfact>
</mgrwt>
</event>
<event>
 5    1  0.1154861E-006  0.2000041E+02  0.7818608E-02  0.1745320E+00
          4   -1    0    0  501    0  0.00000000000E+00  0.00000000000E+00  0.40902874991E+02  0.40927516203E+02  0.14200000000E+01 0.  1.
         -4   -1    0    0    0  501 -0.00000000000E+00 -0.00000000000E+00 -0.22111243159E+01  0.26278262386E+01  0.14200000000E+01 0. -1.
       1023    2    1    2    0    0  0.00000000000E+00  0.00000000000E+00  0.38691750675E+02  0.43555342442E+02  0.20000407118E+02 0.  0.
        -11    1    3    3    0    0 -0.47440231705E-01  0.99999320973E+01  0.19468650121E+02  0.21886736402E+02  0.51100000000E-03 0. -1.
         11    1    3    3    0    0  0.47440231705E-01 -0.99999320973E+01  0.19223100555E+02  0.21668606040E+02  0.51100000000E-03 0.  1.
<mgrwt>
<rscale>  0 0.20000407E+02</rscale>
<asrwt>0</asrwt>
<pdfrwt beam="1">  1        4 0.63266998E-02 0.20000407E+02</pdfrwt>
<pdfrwt beam="2">  1       -4 0.37412242E-03 0.20000407E+02</pdfrwt>
<totfact> 0.11799682E+06</totfact>
</mgrwt>
</event>
<event>
 5    1  0.1154861E-006  0.2000191E+02  0.7818608E-02  0.1745290E+00
          4   -1    0    0  501    0  0.00000000000E+00  0.00000000000E+00  0.34457735582E+02  0.34486982203E+02  0.14200000000E+01 0. -1.
         -4   -1    0    0    0  501 -0.00000000000E+00 -0.00000000000E+00 -0.26965927543E+01  0.30476240717E+01  0.14200000000E+01 0.  1.
       1023    2    1    2    0    0  0.00000000000E+00  0.00000000000E+00  0.31761142828E+02  0.37534606274E+02  0.20001911770E+02 0.  0.
        -11    1    3    3    0    0  0.60006276114E+01  0.80000722274E+01  0.16072227582E+02  0.18929479314E+02  0.51100000000E-03 0.  1.
         11    1    3    3    0    0 -0.60006276114E+01 -0.80000722274E+01  0.15688915246E+02  0.18605126961E+02  0.51100000000E-03 0. -1.
<mgrwt>
<rscale>  0 0.20001912E+02</rscale>
<asrwt>0</asrwt>
<pdfrwt beam="1">  1        4 0.53304422E-02 0.20001912E+02</pdfrwt>
<pdfrwt beam="2">  1       -4 0.44411258E-03 0.20001912E+02</pdfrwt>
<totfact> 0.12076603E+06</totfact>
</mgrwt>
</event>
<event>
 5    1  0.1154861E-006  0.2000027E+02  0.7818608E-02  0.1745323E+00
          4   -1    0    0  501    0  0.00000000000E+00  0.00000000000E+00  0.34679924107E+02  0.34708983507E+02  0.14200000000E+01 0.  1.
         -4   -1    0    0    0  501 -0.00000000000E+00 -0.00000000000E+00 -0.26765752237E+01  0.30299265549E+01  0.14200000000E+01 0. -1.
       1023    2    1    2    0    0  0.00000000000E+00  0.00000000000E+00  0.32003348883E+02  0.37738910062E+02  0.20000274820E+02 0.  0.
        -11    1    3    3    0    0  0.85886715336E+01  0.51222247731E+01  0.16033396259E+02  0.18896355765E+02  0.51100000000E-03 0.  1.
         11    1    3    3    0    0 -0.85886715336E+01 -0.51222247731E+01  0.15969952624E+02  0.18842554296E+02  0.51100000000E-03 0. -1.
<mgrwt>
<rscale>  0 0.20000275E+02</rscale>
<asrwt>0</asrwt>
<pdfrwt beam="1">  1        4 0.53647888E-02 0.20000275E+02</pdfrwt>
<pdfrwt beam="2">  1       -4 0.44119704E-03 0.20000275E+02</pdfrwt>
<totfact> 0.12068843E+06</totfact>
</mgrwt>
</event>
<event>
 5    1  0.1154861E-006  0.2001113E+02  0.7818608E-02  0.1745107E+00
          4   -1    0    0  501    0  0.00000000000E+00  0.00000000000E+00  0.46428830055E+01  0.48551789465E+01  0.14200000000E+01 0.  1.
         -4   -1    0    0    0  501 -0.00000000000E+00 -0.00000000000E+00 -0.20843370515E+02  0.20891684815E+02  0.14200000000E+01 0. -1.
       1023    2    1    2    0    0  0.00000000000E+00  0.00000000000E+00 -0.16200487509E+02  0.25746863762E+02  0.20011126855E+02 0.  0.
        -11    1    3    3    0    0 -0.72984023235E+01  0.68440685844E+01 -0.81746902508E+01  0.12920275238E+02  0.51100000000E-03 0. -1.
         11    1    3    3    0    0  0.72984023235E+01 -0.68440685844E+01 -0.80257972584E+01  0.12826588524E+02  0.51100000000E-03 0.  1.
<mgrwt>
<rscale>  0 0.20011127E+02</rscale>
<asrwt>0</asrwt>
<pdfrwt beam="1">  1        4 0.73433664E-03 0.20011127E+02</pdfrwt>
<pdfrwt beam="2">  1       -4 0.32267193E-02 0.20011127E+02</pdfrwt>
<totfact> 0.12669772E+06</totfact>
</mgrwt>
</event>
<event>
 5    1  0.1154861E-006  0.2000035E+02  0.7818608E-02  0.1745321E+00
          4   -1    0    0  501    0  0.00000000000E+00  0.00000000000E+00  0.45458879067E+01  0.47625095129E+01  0.14200000000E+01 0. -1.
         -4   -1    0    0    0  501 -0.00000000000E+00 -0.00000000000E+00 -0.21245850713E+02  0.21293251807E+02  0.14200000000E+01 0.  1.
       1023    2    1    2    0    0  0.00000000000E+00  0.00000000000E+00 -0.16699962806E+02  0.26055761320E+02  0.20000348502E+02 0.  0.
        -11    1    3    3    0    0 -0.64424689886E+01 -0.76482840841E+01 -0.82942709426E+01  0.12992174061E+02  0.51100000000E-03 0.  1.
         11    1    3    3    0    0  0.64424689886E+01  0.76482840841E+01 -0.84056918633E+01  0.13063587259E+02  0.51100000000E-03 0. -1.
<mgrwt>
<rscale>  0 0.20000349E+02</rscale>
<asrwt>0</asrwt>
<pdfrwt beam="1">  1        4 0.71967682E-03 0.20000349E+02</pdfrwt>
<pdfrwt beam="2">  1       -4 0.32889018E-02 0.20000349E+02</pdfrwt>
<totfact> 0.12666651E+06</totfact>
</mgrwt>
</event>
<event>
 5    1  0.1154861E-006  0.2000024E+02  0.7818608E-02  0.1745323E+00
          4   -1    0    0  501    0  0.00000000000E+00  0.00000000000E+00  0.63226532408E+02  0.63242476235E+02  0.14200000000E+01 0. -1.
         -4   -1    0    0    0  501 -0.00000000000E+00 -0.00000000000E+00 -0.12434555190E+01  0.18874802324E+01  0.14200000000E+01 0.  1.
       1023    2    1    2    0    0  0.00000000000E+00  0.00000000000E+00  0.61983076889E+02  0.65129956467E+02  0.20000235219E+02 0.  0.
        -11    1    3    3    0    0  0.10433131639E+01  0.99454447496E+01  0.31136380288E+02  0.32702821764E+02  0.51100000000E-03 0.  1.
         11    1    3    3    0    0 -0.10433131639E+01 -0.99454447496E+01  0.30846696601E+02  0.32427134704E+02  0.51100000000E-03 0. -1.
<mgrwt>
<rscale>  0 0.20000235E+02</rscale>
<asrwt>0</asrwt>
<pdfrwt beam="1">  1        4 0.97779234E-02 0.20000235E+02</pdfrwt>
<pdfrwt beam="2">  1       -4 0.24206772E-03 0.20000235E+02</pdfrwt>
<totfact> 0.10925931E+06</totfact>
</mgrwt>
</event>
<event>
 5    1  0.1154861E-006  0.2000023E+02  0.7818608E-02  0.1745323E+00
         -4   -1    0    0    0  501 -0.00000000000E+00  0.00000000000E+00  0.49510646878E+01  0.51506738921E+01  0.14200000000E+01 0.  1.
          4   -1    0    0  501    0  0.00000000000E+00 -0.00000000000E+00 -0.19573195031E+02  0.19624636651E+02  0.14200000000E+01 0.  1.
       1023    2    1    2    0    0  0.00000000000E+00  0.00000000000E+00 -0.14622130343E+02  0.24775310544E+02  0.20000232918E+02 0.  0.
        -11    1    3    3    0    0  0.92497233262E+01 -0.38004106070E+01 -0.72581234055E+01  0.12356409593E+02  0.51100000000E-03 0.  1.
         11    1    3    3    0    0 -0.92497233262E+01  0.38004106070E+01 -0.73640069373E+01  0.12418900951E+02  0.51100000000E-03 0. -1.
<mgrwt>
<rscale>  0 0.20000233E+02</rscale>
<asrwt>0</asrwt>
<pdfrwt beam="2">  1        4 0.30305723E-02 0.20000233E+02</pdfrwt>
<pdfrwt beam="1">  1       -4 0.78101387E-03 0.20000233E+02</pdfrwt>
<totfact> 0.12737854E+06</totfact>
</mgrwt>
</event>
<event>
 5    1  0.1154861E-006  0.2000067E+02  0.7818608E-02  0.1745315E+00
          4   -1    0    0  501    0  0.00000000000E+00  0.00000000000E+00  0.74063010166E+02  0.74076621649E+02  0.14200000000E+01 0. -1.
         -4   -1    0    0    0  501 -0.00000000000E+00 -0.00000000000E+00 -0.95934930095E+00  0.17136951541E+01  0.14200000000E+01 0.  1.
       1023    2    1    2    0    0  0.00000000000E+00  0.00000000000E+00  0.73103660865E+02  0.75790316803E+02  0.20000672218E+02 0.  0.
        -11    1    3    3    0    0 -0.84480556032E+01 -0.53508435070E+01  0.36834192486E+02  0.38167511133E+02  0.51100000000E-03 0. -1.
         11    1    3    3    0    0  0.84480556032E+01  0.53508435070E+01  0.36269468379E+02  0.37622805670E+02  0.51100000000E-03 0.  1.
<mgrwt>
<rscale>  0 0.20000672E+02</rscale>
<asrwt>0</asrwt>
<pdfrwt beam="1">  1        4 0.11453380E-01 0.20000672E+02</pdfrwt>
<pdfrwt beam="2">  1       -4 0.20666589E-03 0.20000672E+02</pdfrwt>
<totfact> 0.10550252E+06</totfact>
</mgrwt>
</event>
<event>
 5    1  0.1154861E-006  0.2000058E+02  0.7818608E-02  0.1745317E+00
         -4   -1    0    0    0  501 -0.00000000000E+00  0.00000000000E+00  0.43454304501E+02  0.43477499694E+02  0.14200000000E+01 0. -1.
          4   -1    0    0  501    0  0.00000000000E+00 -0.00000000000E+00 -0.20561977376E+01  0.24988695716E+01  0.14200000000E+01 0.  1.
       1023    2    1    2    0    0  0.00000000000E+00  0.00000000000E+00  0.41398106763E+02  0.45976369265E+02  0.20000582173E+02 0.  0.
        -11    1    3    3    0    0 -0.51615451759E+01 -0.85652874210E+01  0.20724687349E+02  0.23011266005E+02  0.51100000000E-03 0. -1.
         11    1    3    3    0    0  0.51615451759E+01  0.85652874210E+01  0.20673419414E+02  0.22965103260E+02  0.51100000000E-03 0.  1.
<mgrwt>
<rscale>  0 0.20000582E+02</rscale>
<asrwt>0</asrwt>
<pdfrwt beam="2">  1        4 0.35217404E-03 0.20000582E+02</pdfrwt>
<pdfrwt beam="1">  1       -4 0.67211136E-02 0.20000582E+02</pdfrwt>
<totfact> 0.11692162E+06</totfact>
</mgrwt>
</event>
<event>
 5    1  0.1161993E-006  0.2000334E+02  0.7818608E-02  0.1745262E+00
         -4   -1    0    0    0  501 -0.00000000000E+00  0.00000000000E+00  0.91822588206E+01  0.92914087763E+01  0.14200000000E+01 0. -1.
          4   -1    0    0  501    0  0.00000000000E+00 -0.00000000000E+00 -0.10673390181E+02  0.10767435069E+02  0.14200000000E+01 0.  1.
       1023    2    1    2    0    0  0.00000000000E+00  0.00000000000E+00 -0.14911313607E+01  0.20058843845E+02  0.20003343312E+02 0.  0.
        -11    1    3    3    0    0 -0.33164350035E+01 -0.94343757792E+01 -0.58003745363E+00  0.10017116910E+02  0.51100000000E-03 0. -1.
         11    1    3    3    0    0  0.33164350035E+01  0.94343757792E+01 -0.91109390703E+00  0.10041726935E+02  0.51100000000E-03 0.  1.
<mgrwt>
<rscale>  0 0.20003343E+02</rscale>
<asrwt>0</asrwt>
<pdfrwt beam="2">  1        4 0.16576904E-02 0.20003343E+02</pdfrwt>
<pdfrwt beam="1">  1       -4 0.14282856E-02 0.20003343E+02</pdfrwt>
<totfact> 0.13006113E+06</totfact>
</mgrwt>
</event>
<event>
 5    1  0.1154861E-006  0.2000084E+02  0.7818608E-02  0.1745311E+00
         -4   -1    0    0    0  501 -0.00000000000E+00  0.00000000000E+00  0.59812038155E+02  0.59828891919E+02  0.14200000000E+01 0.  1.
          4   -1    0    0  501    0  0.00000000000E+00 -0.00000000000E+00 -0.13503033042E+01  0.19595200977E+01  0.14200000000E+01 0. -1.
       1023    2    1    2    0    0  0.00000000000E+00  0.00000000000E+00  0.58461734851E+02  0.61788412017E+02  0.20000835427E+02 0.  0.
        -11    1    3    3    0    0 -0.79824507091E+01  0.60233483881E+01  0.28952675764E+02  0.30630992137E+02  0.51100000000E-03 0.  1.
         11    1    3    3    0    0  0.79824507091E+01 -0.60233483881E+01  0.29509059087E+02  0.31157419880E+02  0.51100000000E-03 0. -1.
<mgrwt>
<rscale>  0 0.20000835E+02</rscale>
<asrwt>0</asrwt>
<pdfrwt beam="2">  1        4 0.25589823E-03 0.20000835E+02</pdfrwt>
<pdfrwt beam="1">  1       -4 0.92500116E-02 0.20000835E+02</pdfrwt>
<totfact> 0.11049793E+06</totfact>
</mgrwt>
</event>
<event>
 5    1  0.1154861E-006  0.2000024E+02  0.7818608E-02  0.1745323E+00
         -4   -1    0    0    0  501 -0.00000000000E+00  0.00000000000E+00  0.59108579811E+02  0.59125634096E+02  0.14200000000E+01 0.  1.
          4   -1    0    0  501    0  0.00000000000E+00 -0.00000000000E+00 -0.13734546957E+01  0.19755449378E+01  0.14200000000E+01 0. -1.
       1023    2    1    2    0    0  0.00000000000E+00  0.00000000000E+00  0.57735125115E+02  0.61101179034E+02  0.20000235180E+02 0.  0.
        -11    1    3    3    0    0  0.99783002625E+01 -0.65912979542E+00  0.28982819928E+02  0.30659497378E+02  0.51100000000E-03 0. -1.
         11    1    3    3    0    0 -0.99783002625E+01  0.65912979542E+00  0.28752305187E+02  0.30441681656E+02  0.51100000000E-03 0.  1.
<mgrwt>
<rscale>  0 0.20000235E+02</rscale>
<asrwt>0</asrwt>
<pdfrwt beam="2">  1        4 0.25892727E-03 0.20000235E+02</pdfrwt>
<pdfrwt beam="1">  1       -4 0.91412526E-02 0.20000235E+02</pdfrwt>
<totfact> 0.11076516E+06</totfact>
</mgrwt>
</event>
<event>
 5    1  0.1154861E-006  0.2000039E+02  0.7818608E-02  0.1745320E+00
         -4   -1    0    0    0  501 -0.00000000000E+00  0.00000000000E+00  0.12341368106E+01  0.18813542110E+01  0.14200000000E+01 0. -1.
          4   -1    0    0  501    0  0.00000000000E+00 -0.00000000000E+00 -0.63541047123E+02  0.63556912051E+02  0.14200000000E+01 0.  1.
       1023    2    1    2    0    0  0.00000000000E+00  0.00000000000E+00 -0.62306910312E+02  0.65438266262E+02  0.20000390464E+02 0.  0.
        -11    1    3    3    0    0  0.10000089621E+02  0.40515160854E-01 -0.31224426393E+02  0.32786708248E+02  0.51100000000E-03 0. -1.
         11    1    3    3    0    0 -0.10000089621E+02 -0.40515160854E-01 -0.31082483920E+02  0.32651558014E+02  0.51100000000E-03 0.  1.
<mgrwt>
<rscale>  0 0.20000390E+02</rscale>
<asrwt>0</asrwt>
<pdfrwt beam="2">  1        4 0.98265500E-02 0.20000390E+02</pdfrwt>
<pdfrwt beam="1">  1       -4 0.24087358E-03 0.20000390E+02</pdfrwt>
<totfact> 0.10914447E+06</totfact>
</mgrwt>
</event>
<event>
 5    1  0.1154861E-006  0.2000005E+02  0.7818608E-02  0.1745327E+00
         -4   -1    0    0    0  501 -0.00000000000E+00  0.00000000000E+00  0.10734617542E+01  0.17800899241E+01  0.14200000000E+01 0. -1.
          4   -1    0    0  501    0  0.00000000000E+00 -0.00000000000E+00 -0.69372737093E+02  0.69387268658E+02  0.14200000000E+01 0.  1.
       1023    2    1    2    0    0  0.00000000000E+00  0.00000000000E+00 -0.68299275339E+02  0.71167358582E+02  0.20000047893E+02 0.  0.
        -11    1    3    3    0    0 -0.97969023277E+01 -0.20052714539E+01 -0.34119899626E+02  0.35555139706E+02  0.51100000000E-03 0. -1.
         11    1    3    3    0    0  0.97969023277E+01  0.20052714539E+01 -0.34179375713E+02  0.35612218875E+02  0.51100000000E-03 0.  1.
<mgrwt>
<rscale>  0 0.20000048E+02</rscale>
<asrwt>0</asrwt>
<pdfrwt beam="2">  1        4 0.10728200E-01 0.20000048E+02</pdfrwt>
<pdfrwt beam="1">  1       -4 0.22062184E-03 0.20000048E+02</pdfrwt>
<totfact> 0.10709730E+06</totfact>
</mgrwt>
</event>
<event>
 5    1  0.1154861E-006  0.2000026E+02  0.7818608E-02  0.1745323E+00
          4   -1    0    0  501    0  0.00000000000E+00  0.00000000000E+00  0.13156602796E+02  0.13233011642E+02  0.14200000000E+01 0.  1.
         -4   -1    0    0    0  501 -0.00000000000E+00 -0.00000000000E+00 -0.74351417477E+01  0.75695265908E+01  0.14200000000E+01 0. -1.
       1023    2    1    2    0    0  0.00000000000E+00  0.00000000000E+00  0.57214610480E+01  0.20802538233E+02  0.20000262009E+02 0.  0.
        -11    1    3    3    0    0 -0.46307256599E+01 -0.88633431274E+01  0.28480637043E+01  0.10397785277E+02  0.51100000000E-03 0.  1.
         11    1    3    3    0    0  0.46307256599E+01  0.88633431274E+01  0.28733973437E+01  0.10404752957E+02  0.51100000000E-03 0. -1.
<mgrwt>
<rscale>  0 0.20000262E+02</rscale>
<asrwt>0</asrwt>
<pdfrwt beam="1">  1        4 0.20403076E-02 0.20000262E+02</pdfrwt>
<pdfrwt beam="2">  1       -4 0.11600829E-02 0.20000262E+02</pdfrwt>
<totfact> 0.12966080E+06</totfact>
</mgrwt>
</event>
<event>
 5    1  0.1154861E-006  0.2000518E+02  0.7818608E-02  0.1745225E+00
          4   -1    0    0  501    0  0.00000000000E+00  0.00000000000E+00  0.20335813646E+02  0.20385330918E+02  0.14200000000E+01 0. -1.
         -4   -1    0    0    0  501 -0.00000000000E+00 -0.00000000000E+00 -0.47607212608E+01  0.49679841911E+01  0.14200000000E+01 0.  1.
       1023    2    1    2    0    0  0.00000000000E+00  0.00000000000E+00  0.15575092385E+02  0.25353315110E+02  0.20005176436E+02 0.  0.
        -11    1    3    3    0    0 -0.80911141939E+01 -0.58786253057E+01  0.75777399225E+01  0.12547769004E+02  0.51100000000E-03 0.  1.
         11    1    3    3    0    0  0.80911141939E+01  0.58786253057E+01  0.79973524630E+01  0.12805546106E+02  0.51100000000E-03 0. -1.
<mgrwt>
<rscale>  0 0.20005176E+02</rscale>
<asrwt>0</asrwt>
<pdfrwt beam="1">  1        4 0.31483390E-02 0.20005176E+02</pdfrwt>
<pdfrwt beam="2">  1       -4 0.75217099E-03 0.20005176E+02</pdfrwt>
<totfact> 0.12699232E+06</totfact>
</mgrwt>
</event>
<event>
 5    1  0.1154861E-006  0.2000262E+02  0.7818608E-02  0.1745276E+00
          4   -1    0    0  501    0  0.00000000000E+00  0.00000000000E+00  0.32007317348E+01  0.35015830189E+01  0.14200000000E+01 0.  1.
         -4   -1    0    0    0  501 -0.00000000000E+00 -0.00000000000E+00 -0.29529564011E+02  0.29563686351E+02  0.14200000000E+01 0. -1.
       1023    2    1    2    0    0  0.00000000000E+00  0.00000000000E+00 -0.26328832276E+02  0.33065269370E+02  0.20002615566E+02 0.  0.
        -11    1    3    3    0    0 -0.60796855378E+01 -0.79400591151E+01 -0.13392525408E+02  0.16714270910E+02  0.51100000000E-03 0. -1.
         11    1    3    3    0    0  0.60796855378E+01  0.79400591151E+01 -0.12936306867E+02  0.16350998459E+02  0.51100000000E-03 0.  1.
<mgrwt>
<rscale>  0 0.20002616E+02</rscale>
<asrwt>0</asrwt>
<pdfrwt beam="1">  1        4 0.51818749E-03 0.20002616E+02</pdfrwt>
<pdfrwt beam="2">  1       -4 0.45687769E-02 0.20002616E+02</pdfrwt>
<totfact> 0.12295146E+06</totfact>
</mgrwt>
</event>
<event>
 5    1  0.1154861E-006  0.2000028E+02  0.7818608E-02  0.1745323E+00
         -4   -1    0    0    0  501 -0.00000000000E+00  0.00000000000E+00  0.34849401169E+00  0.14621381864E+01  0.14200000000E+01 0.  1.
          4   -1    0    0  501    0  0.00000000000E+00 -0.00000000000E+00 -0.10934066299E+03  0.10934988333E+03  0.14200000000E+01 0. -1.
       1023    2    1    2    0    0  0.00000000000E+00  0.00000000000E+00 -0.10899216898E+03  0.11081202151E+03  0.20000280317E+02 0.  0.
        -11    1    3    3    0    0  0.68880997715E+01  0.72495719310E+01 -0.54630809843E+02  0.55538523531E+02  0.51100000000E-03 0.  1.
         11    1    3    3    0    0 -0.68880997715E+01 -0.72495719310E+01 -0.54361359138E+02  0.55273497982E+02  0.51100000000E-03 0. -1.
<mgrwt>
<rscale>  0 0.20000280E+02</rscale>
<asrwt>0</asrwt>
<pdfrwt beam="2">  1        4 0.16908004E-01 0.20000280E+02</pdfrwt>
<pdfrwt beam="1">  1       -4 0.13998874E-03 0.20000280E+02</pdfrwt>
<totfact> 0.95033720E+05</totfact>
</mgrwt>
</event>
<event>
 4    1  0.1154861E-006  0.2002102E+02  0.7818608E-02  0.1744910E+00
          4   -1    0    0  501    0  0.00000000000E+00  0.00000000000E+00  0.30590949991E+02  0.30623889717E+02  0.14200000000E+01 0.  1.
         -4   -1    0    0    0  501 -0.00000000000E+00 -0.00000000000E+00 -0.30854914476E+01  0.33965655409E+01  0.14200000000E+01 0. -1.
        -11    1    1    2    0    0 -0.12964374056E+01  0.99255645559E+01  0.13944220514E+02  0.17165047851E+02  0.51100000000E-03 0. -1.
         11    1    1    2    0    0  0.12964374056E+01 -0.99255645559E+01  0.13561238029E+02  0.16855407407E+02  0.51100000000E-03 0.  1.
<mgrwt>
<rscale>  0 0.20021017E+02</rscale>
<asrwt>0</asrwt>
<pdfrwt beam="1">  1        4 0.47327625E-02 0.20021017E+02</pdfrwt>
<pdfrwt beam="2">  1       -4 0.50115360E-03 0.20021017E+02</pdfrwt>
<totfact> 0.12224450E+06</totfact>
</mgrwt>
</event>
<event>
 5    1  0.1154861E-006  0.2000494E+02  0.7818608E-02  0.1745230E+00
         -4   -1    0    0    0  501 -0.00000000000E+00  0.00000000000E+00  0.84184694201E+01  0.85373899628E+01  0.14200000000E+01 0.  1.
          4   -1    0    0  501    0  0.00000000000E+00 -0.00000000000E+00 -0.11638784489E+02  0.11725088673E+02  0.14200000000E+01 0. -1.
       1023    2    1    2    0    0  0.00000000000E+00  0.00000000000E+00 -0.32203150689E+01  0.20262478635E+02  0.20004939673E+02 0.  0.
        -11    1    3    3    0    0  0.31226576745E-01 -0.10001213817E+02 -0.17675597437E+01  0.10156255246E+02  0.51100000000E-03 0. -1.
         11    1    3    3    0    0 -0.31226576745E-01  0.10001213817E+02 -0.14527553252E+01  0.10106223390E+02  0.51100000000E-03 0.  1.
<mgrwt>
<rscale>  0 0.20004940E+02</rscale>
<asrwt>0</asrwt>
<pdfrwt beam="2">  1        4 0.18063687E-02 0.20004940E+02</pdfrwt>
<pdfrwt beam="1">  1       -4 0.13109357E-02 0.20004940E+02</pdfrwt>
<totfact> 0.12991870E+06</totfact>
</mgrwt>
</event>
<event>
 5    1  0.1185157E-006  0.2000117E+02  0.7818608E-02  0.1745305E+00
          4   -1    0    0  501    0  0.00000000000E+00  0.00000000000E+00  0.12804438113E+02  0.12882935822E+02  0.14200000000E+01 0.  1.
         -4   -1    0    0    0  501 -0.00000000000E+00 -0.00000000000E+00 -0.76427449062E+01  0.77735416446E+01  0.14200000000E+01 0. -1.
       1023    2    1    2    0    0  0.00000000000E+00  0.00000000000E+00  0.51616932068E+01  0.20656477466E+02  0.20001174580E+02 0.  0.
        -11    1    3    3    0    0 -0.86999055068E+01 -0.49317134010E+01  0.26220664466E+01  0.10338538853E+02  0.51100000000E-03 0.  1.
         11    1    3    3    0    0  0.86999055068E+01  0.49317134010E+01  0.25396267602E+01  0.10317938614E+02  0.51100000000E-03 0. -1.
<mgrwt>
<rscale>  0 0.20001175E+02</rscale>
<asrwt>0</asrwt>
<pdfrwt beam="1">  1        4 0.19860131E-02 0.20001175E+02</pdfrwt>
<pdfrwt beam="2">  1       -4 0.11919065E-02 0.20001175E+02</pdfrwt>
<totfact> 0.12973515E+06</totfact>
</mgrwt>
</event>
<event>
 5    1  0.1166609E-006  0.2000064E+02  0.7818608E-02  0.1745315E+00
         -4   -1    0    0    0  501 -0.00000000000E+00  0.00000000000E+00  0.19545263713E+02  0.19596778654E+02  0.14200000000E+01 0. -1.
          4   -1    0    0  501    0  0.00000000000E+00 -0.00000000000E+00 -0.49586201160E+01  0.51579369379E+01  0.14200000000E+01 0.  1.
       1023    2    1    2    0    0  0.00000000000E+00  0.00000000000E+00  0.14586643597E+02  0.24754715591E+02  0.20000644305E+02 0.  0.
        -11    1    3    3    0    0 -0.97229191513E+01  0.23388937539E+01  0.73296619276E+01  0.12398771110E+02  0.51100000000E-03 0. -1.
         11    1    3    3    0    0  0.97229191513E+01 -0.23388937539E+01  0.72569816691E+01  0.12355944481E+02  0.51100000000E-03 0.  1.
<mgrwt>
<rscale>  0 0.20000644E+02</rscale>
<asrwt>0</asrwt>
<pdfrwt beam="2">  1        4 0.78215939E-03 0.20000644E+02</pdfrwt>
<pdfrwt beam="1">  1       -4 0.30262584E-02 0.20000644E+02</pdfrwt>
<totfact> 0.12738474E+06</totfact>
</mgrwt>
</event>
<event>
 5    1  0.1154861E-006  0.2000071E+02  0.7818608E-02  0.1745314E+00
          4   -1    0    0  501    0  0.00000000000E+00  0.00000000000E+00  0.67801149311E+01  0.69272186683E+01  0.14200000000E+01 0. -1.
         -4   -1    0    0    0  501 -0.00000000000E+00 -0.00000000000E+00 -0.14409382672E+02  0.14479181918E+02  0.14200000000E+01 0.  1.
       1023    2    1    2    0    0  0.00000000000E+00  0.00000000000E+00 -0.76292677414E+01  0.21406400586E+02  0.20000706482E+02 0.  0.
        -11    1    3    3    0    0  0.72065499207E+01  0.69333747659E+01 -0.37804974430E+01  0.10691034028E+02  0.51100000000E-03 0.  1.
         11    1    3    3    0    0 -0.72065499207E+01 -0.69333747659E+01 -0.38487702984E+01  0.10715366558E+02  0.51100000000E-03 0. -1.
<mgrwt>
<rscale>  0 0.20000706E+02</rscale>
<asrwt>0</asrwt>
<pdfrwt beam="1">  1        4 0.10597794E-02 0.20000706E+02</pdfrwt>
<pdfrwt beam="2">  1       -4 0.22335130E-02 0.20000706E+02</pdfrwt>
<totfact> 0.12929915E+06</totfact>
</mgrwt>
</event>
<event>
 5    1  0.1154861E-006  0.2000039E+02  0.7818608E-02  0.1745320E+00
          4   -1    0    0  501    0  0.00000000000E+00  0.00000000000E+00  0.21603993629E+01  0.25852901979E+01  0.14200000000E+01 0. -1.
         -4   -1    0    0    0  501 -0.00000000000E+00 -0.00000000000E+00 -0.41707111748E+02  0.41731278082E+02  0.14200000000E+01 0.  1.
       1023    2    1    2    0    0  0.00000000000E+00  0.00000000000E+00 -0.39546712385E+02  0.44316568280E+02  0.20000394087E+02 0.  0.
        -11    1    3    3    0    0  0.63084550705E+00  0.99801772133E+01 -0.19673341386E+02  0.22069034071E+02  0.51100000000E-03 0. -1.
         11    1    3    3    0    0 -0.63084550705E+00 -0.99801772133E+01 -0.19873370999E+02  0.22247534209E+02  0.51100000000E-03 0.  1.
<mgrwt>
<rscale>  0 0.20000394E+02</rscale>
<asrwt>0</asrwt>
<pdfrwt beam="1">  1        4 0.36691202E-03 0.20000394E+02</pdfrwt>
<pdfrwt beam="2">  1       -4 0.64510210E-02 0.20000394E+02</pdfrwt>
<totfact> 0.11765666E+06</totfact>
</mgrwt>
</event>
<event>
 5    1  0.1154861E-006  0.2000129E+02  0.7818608E-02  0.1745302E+00
         -4   -1    0    0    0  501 -0.00000000000E+00  0.00000000000E+00  0.77324647343E+02  0.77337684777E+02  0.14200000000E+01 0. -1.
          4   -1    0    0  501    0  0.00000000000E+00 -0.00000000000E+00 -0.88648087219E+00  0.16739917374E+01  0.14200000000E+01 0.  1.
       1023    2    1    2    0    0  0.00000000000E+00  0.00000000000E+00  0.76438166470E+02  0.79011676514E+02  0.20001293264E+02 0.  0.
        -11    1    3    3    0    0  0.98731631308E+01  0.15915952517E+01  0.38298792547E+02  0.39582951336E+02  0.51100000000E-03 0. -1.
         11    1    3    3    0    0 -0.98731631308E+01 -0.15915952517E+01  0.38139373923E+02  0.39428725178E+02  0.51100000000E-03 0.  1.
<mgrwt>
<rscale>  0 0.20001293E+02</rscale>
<asrwt>0</asrwt>
<pdfrwt beam="2">  1        4 0.19796232E-03 0.20001293E+02</pdfrwt>
<pdfrwt beam="1">  1       -4 0.11957679E-01 0.20001293E+02</pdfrwt>
<totfact> 0.10442232E+06</totfact>
</mgrwt>
</event>
<event>
 5    1  0.1240353E-006  0.2000133E+02  0.7818608E-02  0.1745302E+00
         -4   -1    0    0    0  501 -0.00000000000E+00  0.00000000000E+00  0.10431992841E+02  0.10528194272E+02  0.14200000000E+01 0.  1.
          4   -1    0    0  501    0  0.00000000000E+00 -0.00000000000E+00 -0.93933630805E+01  0.95000878924E+01  0.14200000000E+01 0. -1.
       1023    2    1    2    0    0  0.00000000000E+00  0.00000000000E+00  0.10386297600E+01  0.20028282164E+02  0.20001333322E+02 0.  0.
        -11    1    3    3    0    0  0.93585910767E+01 -0.35250834187E+01  0.45683404295E+00  0.10010900941E+02  0.51100000000E-03 0. -1.
         11    1    3    3    0    0 -0.93585910767E+01  0.35250834187E+01  0.58179571703E+00  0.10017381223E+02  0.51100000000E-03 0.  1.
<mgrwt>
<rscale>  0 0.20001333E+02</rscale>
<asrwt>0</asrwt>
<pdfrwt beam="2">  1        4 0.14607425E-02 0.20001333E+02</pdfrwt>
<pdfrwt beam="1">  1       -4 0.16205317E-02 0.20001333E+02</pdfrwt>
<totfact> 0.13010595E+06</totfact>
</mgrwt>
</event>
<event>
 5    1  0.1168135E-006  0.2000167E+02  0.7818608E-02  0.1745295E+00
         -4   -1    0    0    0  501 -0.00000000000E+00  0.00000000000E+00  0.13741929234E+02  0.13815101124E+02  0.14200000000E+01 0. -1.
          4   -1    0    0  501    0  0.00000000000E+00 -0.00000000000E+00 -0.71153726452E+01  0.72556824545E+01  0.14200000000E+01 0.  1.
       1023    2    1    2    0    0  0.00000000000E+00  0.00000000000E+00  0.66265565889E+01  0.21070783579E+02  0.20001666640E+02 0.  0.
        -11    1    3    3    0    0  0.86144222408E+01 -0.50801199915E+01  0.33426461234E+01  0.10544627686E+02  0.51100000000E-03 0.  1.
         11    1    3    3    0    0 -0.86144222408E+01  0.50801199915E+01  0.32839104655E+01  0.10526155893E+02  0.51100000000E-03 0. -1.
<mgrwt>
<rscale>  0 0.20001667E+02</rscale>
<asrwt>0</asrwt>
<pdfrwt beam="2">  1        4 0.11110944E-02 0.20001667E+02</pdfrwt>
<pdfrwt beam="1">  1       -4 0.21305646E-02 0.20001667E+02</pdfrwt>
<totfact> 0.12948373E+06</totfact>
</mgrwt>
</event>
<event>
 5    1  0.1185652E-006  0.2000075E+02  0.7818608E-02  0.1745313E+00
         -4   -1    0    0    0  501 -0.00000000000E+00  0.00000000000E+00  0.41712623431E+01  0.44063396981E+01  0.14200000000E+01 0. -1.
          4   -1    0    0  501    0  0.00000000000E+00 -0.00000000000E+00 -0.23060766093E+02  0.23104444005E+02  0.14200000000E+01 0.  1.
       1023    2    1    2    0    0  0.00000000000E+00  0.00000000000E+00 -0.18889503750E+02  0.27510783703E+02  0.20000746687E+02 0.  0.
        -11    1    3    3    0    0  0.99004279625E+01  0.14083845189E+01 -0.93432453700E+01  0.13685695273E+02  0.51100000000E-03 0. -1.
         11    1    3    3    0    0 -0.99004279625E+01 -0.14083845189E+01 -0.95462583797E+01  0.13825088430E+02  0.51100000000E-03 0.  1.
<mgrwt>
<rscale>  0 0.20000747E+02</rscale>
<asrwt>0</asrwt>
<pdfrwt beam="2">  1        4 0.35692528E-02 0.20000747E+02</pdfrwt>
<pdfrwt beam="1">  1       -4 0.66317539E-03 0.20000747E+02</pdfrwt>
<totfact> 0.12586897E+06</totfact>
</mgrwt>
</event>
<event>
 4    1  0.1154861E-006  0.2002150E+02  0.7818608E-02  0.1744901E+00
          4   -1    0    0  501    0  0.00000000000E+00  0.00000000000E+00  0.13017481403E+02  0.13094702061E+02  0.14200000000E+01 0.  1.
         -4   -1    0    0    0  501 -0.00000000000E+00 -0.00000000000E+00 -0.75319760514E+01  0.76646632828E+01  0.14200000000E+01 0. -1.
        -11    1    1    2    0    0  0.97653906942E+01 -0.21909227972E+01  0.29794683263E+01  0.10442232993E+02  0.51100000000E-03 0. -1.
         11    1    1    2    0    0 -0.97653906942E+01  0.21909227972E+01  0.25060370251E+01  0.10317132351E+02  0.51100000000E-03 0.  1.
<mgrwt>
<rscale>  0 0.20021500E+02</rscale>
<asrwt>0</asrwt>
<pdfrwt beam="1">  1        4 0.20188362E-02 0.20021500E+02</pdfrwt>
<pdfrwt beam="2">  1       -4 0.11749123E-02 0.20021500E+02</pdfrwt>
<totfact> 0.12940581E+06</totfact>
</mgrwt>
</event>
<event>
 5    1  0.1154861E-006  0.2000071E+02  0.7818608E-02  0.1745314E+00
         -4   -1    0    0    0  501 -0.00000000000E+00  0.00000000000E+00  0.80790088177E+01  0.82028521550E+01  0.14200000000E+01 0. -1.
          4   -1    0    0  501    0  0.00000000000E+00 -0.00000000000E+00 -0.12118866008E+02  0.12201775007E+02  0.14200000000E+01 0.  1.
       1023    2    1    2    0    0  0.00000000000E+00  0.00000000000E+00 -0.40398571902E+01  0.20404627162E+02  0.20000709075E+02 0.  0.
        -11    1    3    3    0    0 -0.74123278557E+01  0.67129917194E+01 -0.20353516609E+01  0.10205367152E+02  0.51100000000E-03 0. -1.
         11    1    3    3    0    0  0.74123278557E+01 -0.67129917194E+01 -0.20045055293E+01  0.10199260010E+02  0.51100000000E-03 0.  1.
<mgrwt>
<rscale>  0 0.20000709E+02</rscale>
<asrwt>0</asrwt>
<pdfrwt beam="2">  1        4 0.18803450E-02 0.20000709E+02</pdfrwt>
<pdfrwt beam="1">  1       -4 0.12588285E-02 0.20000709E+02</pdfrwt>
<totfact> 0.12989034E+06</totfact>
</mgrwt>
</event>
<event>
 5    1  0.1174885E-006  0.2000091E+02  0.7818608E-02  0.1745310E+00
         -4   -1    0    0    0  501 -0.00000000000E+00  0.00000000000E+00  0.59862312411E+01  0.61523462574E+01  0.14200000000E+01 0. -1.
          4   -1    0    0  501    0  0.00000000000E+00 -0.00000000000E+00 -0.16280445260E+02  0.16342254981E+02  0.14200000000E+01 0.  1.
       1023    2    1    2    0    0  0.00000000000E+00  0.00000000000E+00 -0.10294214019E+02  0.22494601239E+02  0.20000906045E+02 0.  0.
        -11    1    3    3    0    0  0.67547988211E+01 -0.73743977393E+01 -0.51508811044E+01  0.11249027760E+02  0.51100000000E-03 0.  1.
         11    1    3    3    0    0 -0.67547988211E+01  0.73743977393E+01 -0.51433329148E+01  0.11245573479E+02  0.51100000000E-03 0. -1.
<mgrwt>
<rscale>  0 0.20000906E+02</rscale>
<asrwt>0</asrwt>
<pdfrwt beam="2">  1        4 0.25222165E-02 0.20000906E+02</pdfrwt>
<pdfrwt beam="1">  1       -4 0.93849133E-03 0.20000906E+02</pdfrwt>
<totfact> 0.12866422E+06</totfact>
</mgrwt>
</event>
<event>
 5    1  0.1154861E-006  0.2000065E+02  0.7818608E-02  0.1745315E+00
          4   -1    0    0  501    0  0.00000000000E+00  0.00000000000E+00  0.26012679533E+01  0.29636118108E+01  0.14200000000E+01 0.  1.
         -4   -1    0    0    0  501 -0.00000000000E+00 -0.00000000000E+00 -0.35564582846E+02  0.35592919984E+02  0.14200000000E+01 0. -1.
       1023    2    1    2    0    0  0.00000000000E+00  0.00000000000E+00 -0.32963314893E+02  0.38556531795E+02  0.20000650373E+02 0.  0.
        -11    1    3    3    0    0  0.99153451309E+01 -0.13009148507E+01 -0.16467352569E+02  0.19266036162E+02  0.51100000000E-03 0. -1.
         11    1    3    3    0    0 -0.99153451309E+01  0.13009148507E+01 -0.16495962324E+02  0.19290495633E+02  0.51100000000E-03 0.  1.
<mgrwt>
<rscale>  0 0.20000650E+02</rscale>
<asrwt>0</asrwt>
<pdfrwt beam="1">  1        4 0.43024748E-03 0.20000650E+02</pdfrwt>
<pdfrwt beam="2">  1       -4 0.55015263E-02 0.20000650E+02</pdfrwt>
<totfact> 0.12029540E+06</totfact>
</mgrwt>
</event>
<event>
 5    1  0.1154861E-006  0.2000617E+02  0.7818608E-02  0.1745205E+00
         -4   -1    0    0    0  501 -0.00000000000E+00  0.00000000000E+00  0.42607197249E+01  0.44911170742E+01  0.14200000000E+01 0.  1.
          4   -1    0    0  501    0  0.00000000000E+00 -0.00000000000E+00 -0.22613192130E+02  0.22657732859E+02  0.14200000000E+01 0. -1.
       1023    2    1    2    0    0  0.00000000000E+00  0.00000000000E+00 -0.18352472405E+02  0.27148849933E+02  0.20006169281E+02 0.  0.
        -11    1    3    3    0    0 -0.25950733769E-01  0.10001048063E+02 -0.89046066759E+01  0.13390804909E+02  0.51100000000E-03 0.  1.
         11    1    3    3    0    0  0.25950733769E-01 -0.10001048063E+02 -0.94478657295E+01  0.13758045025E+02  0.51100000000E-03 0. -1.
<mgrwt>
<rscale>  0 0.20006169E+02</rscale>
<asrwt>0</asrwt>
<pdfrwt beam="2">  1        4 0.35001017E-02 0.20006169E+02</pdfrwt>
<pdfrwt beam="1">  1       -4 0.67664444E-03 0.20006169E+02</pdfrwt>
<totfact> 0.12599512E+06</totfact>
</mgrwt>
</event>
<event>
 5    1  0.1154861E-006  0.2000019E+02  0.7818608E-02  0.1745324E+00
          4   -1    0    0  501    0  0.00000000000E+00  0.00000000000E+00  0.28652432339E+02  0.28687597999E+02  0.14200000000E+01 0.  1.
         -4   -1    0    0    0  501 -0.00000000000E+00 -0.00000000000E+00 -0.33067788567E+01  0.35987756817E+01  0.14200000000E+01 0. -1.
       1023    2    1    2    0    0  0.00000000000E+00  0.00000000000E+00  0.25345653483E+02  0.32286373681E+02  0.20000194374E+02 0.  0.
        -11    1    3    3    0    0  0.81452157717E+01  0.58013769963E+01  0.12733839404E+02  0.16191083387E+02  0.51100000000E-03 0. -1.
         11    1    3    3    0    0 -0.81452157717E+01 -0.58013769963E+01  0.12611814079E+02  0.16095290294E+02  0.51100000000E-03 0.  1.
<mgrwt>
<rscale>  0 0.20000194E+02</rscale>
<asrwt>0</asrwt>
<pdfrwt beam="1">  1        4 0.44332328E-02 0.20000194E+02</pdfrwt>
<pdfrwt beam="2">  1       -4 0.53390156E-03 0.20000194E+02</pdfrwt>
<totfact> 0.12337620E+06</totfact>
</mgrwt>
</event>
<event>
 5    1  0.1154861E-006  0.2000296E+02  0.7818608E-02  0.1745269E+00
         -4   -1    0    0    0  501 -0.00000000000E+00  0.00000000000E+00  0.91955070035E+02  0.91966033432E+02  0.14200000000E+01 0.  1.
          4   -1    0    0  501    0  0.00000000000E+00 -0.00000000000E+00 -0.60858682017E+00  0.15449200360E+01  0.14200000000E+01 0. -1.
       1023    2    1    2    0    0  0.00000000000E+00  0.00000000000E+00  0.91346483215E+02  0.93510953468E+02  0.20002960349E+02 0.  0.
        -11    1    3    3    0    0 -0.26345467882E+01 -0.96471837878E+01  0.46344431082E+02  0.47411130385E+02  0.51100000000E-03 0.  1.
         11    1    3    3    0    0  0.26345467882E+01  0.96471837878E+01  0.45002052133E+02  0.46099823082E+02  0.51100000000E-03 0. -1.
<mgrwt>
<rscale>  0 0.20002960E+02</rscale>
<asrwt>0</asrwt>
<pdfrwt beam="2">  1        4 0.16649770E-03 0.20002960E+02</pdfrwt>
<pdfrwt beam="1">  1       -4 0.14219804E-01 0.20002960E+02</pdfrwt>
<totfact> 0.99870971E+05</totfact>
</mgrwt>
</event>
<event>
 5    1  0.1154861E-006  0.2000040E+02  0.7818608E-02  0.1745320E+00
         -4   -1    0    0    0  501 -0.00000000000E+00  0.00000000000E+00  0.47504558506E+01  0.49581479192E+01  0.14200000000E+01 0. -1.
          4   -1    0    0  501    0  0.00000000000E+00 -0.00000000000E+00 -0.20368164920E+02  0.20417603733E+02  0.14200000000E+01 0.  1.
       1023    2    1    2    0    0  0.00000000000E+00  0.00000000000E+00 -0.15617709069E+02  0.25375751652E+02  0.20000398380E+02 0.  0.
        -11    1    3    3    0    0 -0.38908038471E+00  0.99924985379E+01 -0.78732121885E+01  0.12727485258E+02  0.51100000000E-03 0.  1.
         11    1    3    3    0    0  0.38908038471E+00 -0.99924985379E+01 -0.77444968809E+01  0.12648266394E+02  0.51100000000E-03 0. -1.
<mgrwt>
<rscale>  0 0.20000398E+02</rscale>
<asrwt>0</asrwt>
<pdfrwt beam="2">  1        4 0.31533431E-02 0.20000398E+02</pdfrwt>
<pdfrwt beam="1">  1       -4 0.75061867E-03 0.20000398E+02</pdfrwt>
<totfact> 0.12704164E+06</totfact>
</mgrwt>
</event>
<event>
 5    1  0.1187475E-006  0.2000138E+02  0.7818608E-02  0.1745301E+00
         -4   -1    0    0    0  501 -0.00000000000E+00  0.00000000000E+00  0.17273984098E+02  0.17332251055E+02  0.14200000000E+01 0.  1.
          4   -1    0    0  501    0  0.00000000000E+00 -0.00000000000E+00 -0.56335866670E+01  0.58097933469E+01  0.14200000000E+01 0. -1.
       1023    2    1    2    0    0  0.00000000000E+00  0.00000000000E+00  0.11640397431E+02  0.23142044402E+02  0.20001384121E+02 0.  0.
        -11    1    3    3    0    0 -0.10194180777E+01  0.99482438135E+01  0.59175071873E+01  0.11619968148E+02  0.51100000000E-03 0.  1.
         11    1    3    3    0    0  0.10194180777E+01 -0.99482438135E+01  0.57228902441E+01  0.11522076254E+02  0.51100000000E-03 0. -1.
<mgrwt>
<rscale>  0 0.20001384E+02</rscale>
<asrwt>0</asrwt>
<pdfrwt beam="2">  1        4 0.88474209E-03 0.20001384E+02</pdfrwt>
<pdfrwt beam="1">  1       -4 0.26755724E-02 0.20001384E+02</pdfrwt>
<totfact> 0.12828646E+06</totfact>
</mgrwt>
</event>
<event>
 5    1  0.1154861E-006  0.2000315E+02  0.7818608E-02  0.1745265E+00
          4   -1    0    0  501    0  0.00000000000E+00  0.00000000000E+00  0.28267437689E+00  0.14478621493E+01  0.14200000000E+01 0.  1.
         -4   -1    0    0    0  501 -0.00000000000E+00 -0.00000000000E+00 -0.11443495922E+03  0.11444376912E+03  0.14200000000E+01 0. -1.
       1023    2    1    2    0    0  0.00000000000E+00  0.00000000000E+00 -0.11415228484E+03  0.11589163127E+03  0.20003151368E+02 0.  0.
        -11    1    3    3    0    0  0.40093883974E+01  0.91627546138E+01 -0.57167467091E+02  0.58035769671E+02  0.51100000000E-03 0.  1.
         11    1    3    3    0    0 -0.40093883974E+01 -0.91627546138E+01 -0.56984817748E+02  0.57855861600E+02  0.51100000000E-03 0. -1.
<mgrwt>
<rscale>  0 0.20003151E+02</rscale>
<asrwt>0</asrwt>
<pdfrwt beam="1">  1        4 0.13379597E-03 0.20003151E+02</pdfrwt>
<pdfrwt beam="2">  1       -4 0.17695674E-01 0.20003151E+02</pdfrwt>
<totfact> 0.93675957E+05</totfact>
</mgrwt>
</event>
<event>
 5    1  0.1154861E-006  0.2000165E+02  0.7818608E-02  0.1745295E+00
          4   -1    0    0  501    0  0.00000000000E+00  0.00000000000E+00  0.26047723227E+00  0.14436926226E+01  0.14200000000E+01 0.  1.
         -4   -1    0    0    0  501 -0.00000000000E+00 -0.00000000000E+00 -0.11618793946E+03  0.11619661645E+03  0.14200000000E+01 0.  1.
       1023    2    1    2    0    0  0.00000000000E+00  0.00000000000E+00 -0.11592746222E+03  0.11764030908E+03  0.20001645474E+02 0.  0.
        -11    1    3    3    0    0 -0.98948612550E+01 -0.14519545038E+01 -0.57951938013E+02  0.58808533147E+02  0.51100000000E-03 0. -1.
         11    1    3    3    0    0  0.98948612550E+01  0.14519545038E+01 -0.57975524211E+02  0.58831775928E+02  0.51100000000E-03 0.  1.
<mgrwt>
<rscale>  0 0.20001645E+02</rscale>
<asrwt>0</asrwt>
<pdfrwt beam="1">  1        4 0.13175754E-03 0.20001645E+02</pdfrwt>
<pdfrwt beam="2">  1       -4 0.17966739E-01 0.20001645E+02</pdfrwt>
<totfact> 0.93241214E+05</totfact>
</mgrwt>
</event>
<event>
 4    1  0.1154861E-006  0.2044443E+02  0.7818608E-02  0.1736632E+00
          4   -1    0    0  501    0  0.00000000000E+00  0.00000000000E+00  0.98713664780E+02  0.98723877630E+02  0.14200000000E+01 0. -1.
         -4   -1    0    0    0  501 -0.00000000000E+00 -0.00000000000E+00 -0.56736979046E+00  0.15291528632E+01  0.14200000000E+01 0.  1.
        -11    1    1    2    0    0  0.82276029341E+01 -0.59760712102E+01  0.54185336178E+02  0.55131275463E+02  0.51100000000E-03 0.  1.
         11    1    1    2    0    0 -0.82276029341E+01  0.59760712102E+01  0.43960958812E+02  0.45121755031E+02  0.51100000000E-03 0. -1.
<mgrwt>
<rscale>  0 0.20444435E+02</rscale>
<asrwt>0</asrwt>
<pdfrwt beam="1">  1        4 0.15261491E-01 0.20444435E+02</pdfrwt>
<pdfrwt beam="2">  1       -4 0.16205653E-03 0.20444435E+02</pdfrwt>
<totfact> 0.93718626E+05</totfact>
</mgrwt>
</event>
<event>
 5    1  0.1154861E-006  0.2000010E+02  0.7818608E-02  0.1745326E+00
          4   -1    0    0  501    0  0.00000000000E+00  0.00000000000E+00  0.53332236991E+01  0.55190284493E+01  0.14200000000E+01 0.  1.
         -4   -1    0    0    0  501 -0.00000000000E+00 -0.00000000000E+00 -0.18215619798E+02  0.18270884068E+02  0.14200000000E+01 0. -1.
       1023    2    1    2    0    0  0.00000000000E+00  0.00000000000E+00 -0.12882396099E+02  0.23789912518E+02  0.20000095208E+02 0.  0.
        -11    1    3    3    0    0  0.12899657271E+00  0.99992032743E+01 -0.64598387981E+01  0.11905050348E+02  0.51100000000E-03 0. -1.
         11    1    3    3    0    0 -0.12899657271E+00 -0.99992032743E+01 -0.64225573013E+01  0.11884862169E+02  0.51100000000E-03 0.  1.
<mgrwt>
<rscale>  0 0.20000095E+02</rscale>
<asrwt>0</asrwt>
<pdfrwt beam="1">  1        4 0.83903974E-03 0.20000095E+02</pdfrwt>
<pdfrwt beam="2">  1       -4 0.28209468E-02 0.20000095E+02</pdfrwt>
<totfact> 0.12793505E+06</totfact>
</mgrwt>
</event>
<event>
 5    1  0.1188068E-006  0.2000126E+02  0.7818608E-02  0.1745303E+00
         -4   -1    0    0    0  501 -0.00000000000E+00  0.00000000000E+00  0.26501307824E+01  0.30065916191E+01  0.14200000000E+01 0. -1.
          4   -1    0    0  501    0  0.00000000000E+00 -0.00000000000E+00 -0.34988832184E+02  0.35017635237E+02  0.14200000000E+01 0.  1.
       1023    2    1    2    0    0  0.00000000000E+00  0.00000000000E+00 -0.32338701401E+02  0.38024226856E+02  0.20001255452E+02 0.  0.
        -11    1    3    3    0    0  0.99654210410E+01  0.83805722139E+00 -0.16122852542E+02  0.18972567849E+02  0.51100000000E-03 0. -1.
         11    1    3    3    0    0 -0.99654210410E+01 -0.83805722139E+00 -0.16215848860E+02  0.19051659007E+02  0.51100000000E-03 0.  1.
<mgrwt>
<rscale>  0 0.20001255E+02</rscale>
<asrwt>0</asrwt>
<pdfrwt beam="2">  1        4 0.54125326E-02 0.20001255E+02</pdfrwt>
<pdfrwt beam="1">  1       -4 0.43734814E-03 0.20001255E+02</pdfrwt>
<totfact> 0.12054050E+06</totfact>
</mgrwt>
</event>
<event>
 5    1  0.1162438E-006  0.2000137E+02  0.7818608E-02  0.1745301E+00
         -4   -1    0    0    0  501 -0.00000000000E+00  0.00000000000E+00  0.37430784105E+02  0.37457709469E+02  0.14200000000E+01 0. -1.
          4   -1    0    0  501    0  0.00000000000E+00 -0.00000000000E+00 -0.24533522836E+01  0.28346670753E+01  0.14200000000E+01 0.  1.
       1023    2    1    2    0    0  0.00000000000E+00  0.00000000000E+00  0.34977431821E+02  0.40292376544E+02  0.20001371723E+02 0.  0.
        -11    1    3    3    0    0  0.99795580781E+01  0.64414105574E+00  0.17659891185E+02  0.20294783912E+02  0.51100000000E-03 0.  1.
         11    1    3    3    0    0 -0.99795580781E+01 -0.64414105574E+00  0.17317540636E+02  0.19997592632E+02  0.51100000000E-03 0. -1.
<mgrwt>
<rscale>  0 0.20001372E+02</rscale>
<asrwt>0</asrwt>
<pdfrwt beam="2">  1        4 0.40884189E-03 0.20001372E+02</pdfrwt>
<pdfrwt beam="1">  1       -4 0.57899854E-02 0.20001372E+02</pdfrwt>
<totfact> 0.11947364E+06</totfact>
</mgrwt>
</event>
<event>
 5    1  0.1156741E-006  0.2000059E+02  0.7818608E-02  0.1745316E+00
          4   -1    0    0  501    0  0.00000000000E+00  0.00000000000E+00  0.17408057941E+02  0.17465877627E+02  0.14200000000E+01 0. -1.
         -4   -1    0    0    0  501 -0.00000000000E+00 -0.00000000000E+00 -0.55885187985E+01  0.57661028747E+01  0.14200000000E+01 0.  1.
       1023    2    1    2    0    0  0.00000000000E+00  0.00000000000E+00  0.11819539142E+02  0.23231980501E+02  0.20000585303E+02 0.  0.
        -11    1    3    3    0    0  0.99972241435E+01 -0.24395248779E+00  0.59597231622E+01  0.11641404719E+02  0.51100000000E-03 0.  1.
         11    1    3    3    0    0 -0.99972241435E+01  0.24395248779E+00  0.58598159800E+01  0.11590575783E+02  0.51100000000E-03 0. -1.
<mgrwt>
<rscale>  0 0.20000585E+02</rscale>
<asrwt>0</asrwt>
<pdfrwt beam="1">  1        4 0.26962707E-02 0.20000585E+02</pdfrwt>
<pdfrwt beam="2">  1       -4 0.87788011E-03 0.20000585E+02</pdfrwt>
<totfact> 0.12824558E+06</totfact>
</mgrwt>
</event>
<event>
 5    1  0.1154861E-006  0.2000670E+02  0.7818608E-02  0.1745195E+00
         -4   -1    0    0    0  501 -0.00000000000E+00  0.00000000000E+00  0.28960943647E+01  0.32254864082E+01  0.14200000000E+01 0.  1.
          4   -1    0    0  501    0  0.00000000000E+00 -0.00000000000E+00 -0.32347390884E+02  0.32378543775E+02  0.14200000000E+01 0. -1.
       1023    2    1    2    0    0  0.00000000000E+00  0.00000000000E+00 -0.29451296519E+02  0.35604030183E+02  0.20006701343E+02 0.  0.
        -11    1    3    3    0    0 -0.50174489978E+01  0.86503229657E+01 -0.15176357799E+02  0.18174837500E+02  0.51100000000E-03 0.  1.
         11    1    3    3    0    0  0.50174489978E+01 -0.86503229657E+01 -0.14274938720E+02  0.17429192683E+02  0.51100000000E-03 0. -1.
<mgrwt>
<rscale>  0 0.20006701E+02</rscale>
<asrwt>0</asrwt>
<pdfrwt beam="2">  1        4 0.50042557E-02 0.20006701E+02</pdfrwt>
<pdfrwt beam="1">  1       -4 0.47328723E-03 0.20006701E+02</pdfrwt>
<totfact> 0.12164071E+06</totfact>
</mgrwt>
</event>
<event>
 5    1  0.1181461E-006  0.2000105E+02  0.7818608E-02  0.1745307E+00
         -4   -1    0    0    0  501 -0.00000000000E+00  0.00000000000E+00  0.23428923266E+02  0.23471916100E+02  0.14200000000E+01 0. -1.
          4   -1    0    0  501    0  0.00000000000E+00 -0.00000000000E+00 -0.41022540678E+01  0.43410699645E+01  0.14200000000E+01 0.  1.
       1023    2    1    2    0    0  0.00000000000E+00  0.00000000000E+00  0.19326669198E+02  0.27812986065E+02  0.20001051260E+02 0.  0.
        -11    1    3    3    0    0 -0.98500015872E+01 -0.17274067999E+01  0.95748705698E+01  0.13845021207E+02  0.51100000000E-03 0. -1.
         11    1    3    3    0    0  0.98500015872E+01  0.17274067999E+01  0.97517986285E+01  0.13967964858E+02  0.51100000000E-03 0.  1.
<mgrwt>
<rscale>  0 0.20001051E+02</rscale>
<asrwt>0</asrwt>
<pdfrwt beam="2">  1        4 0.65279361E-03 0.20001051E+02</pdfrwt>
<pdfrwt beam="1">  1       -4 0.36261273E-02 0.20001051E+02</pdfrwt>
<totfact> 0.12570242E+06</totfact>
</mgrwt>
</event>
<event>
 5    1  0.1154861E-006  0.2000033E+02  0.7818608E-02  0.1745321E+00
         -4   -1    0    0    0  501 -0.00000000000E+00  0.00000000000E+00  0.11919193662E+03  0.11920039494E+03  0.14200000000E+01 0. -1.
          4   -1    0    0  501    0  0.00000000000E+00 -0.00000000000E+00 -0.22351850114E+00  0.14374840939E+01  0.14200000000E+01 0.  1.
       1023    2    1    2    0    0  0.00000000000E+00  0.00000000000E+00  0.11896841812E+03  0.12063787904E+03  0.20000333734E+02 0.  0.
        -11    1    3    3    0    0 -0.82755542420E+01  0.56140715824E+01  0.59648221145E+02  0.60480681906E+02  0.51100000000E-03 0.  1.
         11    1    3    3    0    0  0.82755542420E+01 -0.56140715824E+01  0.59320196970E+02  0.60157197130E+02  0.51100000000E-03 0. -1.
<mgrwt>
<rscale>  0 0.20000334E+02</rscale>
<asrwt>0</asrwt>
<pdfrwt beam="2">  1        4 0.12842006E-03 0.20000334E+02</pdfrwt>
<pdfrwt beam="1">  1       -4 0.18431256E-01 0.20000334E+02</pdfrwt>
<totfact> 0.92494708E+05</totfact>
</mgrwt>
</event>
<event>
 5    1  0.1154861E-006  0.2000338E+02  0.7818608E-02  0.1745261E+00
         -4   -1    0    0    0  501 -0.00000000000E+00  0.00000000000E+00  0.89074580127E+01  0.90199339381E+01  0.14200000000E+01 0.  1.
          4   -1    0    0  501    0  0.00000000000E+00 -0.00000000000E+00 -0.11001485737E+02  0.11092749362E+02  0.14200000000E+01 0. -1.
       1023    2    1    2    0    0  0.00000000000E+00  0.00000000000E+00 -0.20940277242E+01  0.20112683301E+02  0.20003376651E+02 0.  0.
        -11    1    3    3    0    0 -0.79586837673E+01  0.60571434414E+01 -0.98235757307E+00  0.10049609975E+02  0.51100000000E-03 0. -1.
         11    1    3    3    0    0  0.79586837673E+01 -0.60571434414E+01 -0.11116701511E+01  0.10063073326E+02  0.51100000000E-03 0.  1.
<mgrwt>
<rscale>  0 0.20003377E+02</rscale>
<asrwt>0</asrwt>
<pdfrwt beam="2">  1        4 0.17082085E-02 0.20003377E+02</pdfrwt>
<pdfrwt beam="1">  1       -4 0.13860504E-02 0.20003377E+02</pdfrwt>
<totfact> 0.13002877E+06</totfact>
</mgrwt>
</event>
<event>
 5    1  0.1190880E-006  0.2000166E+02  0.7818608E-02  0.1745295E+00
         -4   -1    0    0    0  501 -0.00000000000E+00  0.00000000000E+00  0.12875311263E+02  0.12953379486E+02  0.14200000000E+01 0.  1.
          4   -1    0    0  501    0  0.00000000000E+00 -0.00000000000E+00 -0.76005902074E+01  0.77321000705E+01  0.14200000000E+01 0. -1.
       1023    2    1    2    0    0  0.00000000000E+00  0.00000000000E+00  0.52747210553E+01  0.20685479557E+02  0.20001659488E+02 0.  0.
        -11    1    3    3    0    0  0.50462790141E+01 -0.86336407523E+01  0.27502282264E+01  0.10371520626E+02  0.51100000000E-03 0.  1.
         11    1    3    3    0    0 -0.50462790141E+01  0.86336407523E+01  0.25244928289E+01  0.10313958931E+02  0.51100000000E-03 0. -1.
<mgrwt>
<rscale>  0 0.20001659E+02</rscale>
<asrwt>0</asrwt>
<pdfrwt beam="2">  1        4 0.11854430E-02 0.20001659E+02</pdfrwt>
<pdfrwt beam="1">  1       -4 0.19969385E-02 0.20001659E+02</pdfrwt>
<totfact> 0.12971161E+06</totfact>
</mgrwt>
</event>
<event>
 5    1  0.1154861E-006  0.2000095E+02  0.7818608E-02  0.1745309E+00
          4   -1    0    0  501    0  0.00000000000E+00  0.00000000000E+00  0.38721050910E+02  0.38747079678E+02  0.14200000000E+01 0. -1.
         -4   -1    0    0    0  501 -0.00000000000E+00 -0.00000000000E+00 -0.23586232789E+01  0.27530898590E+01  0.14200000000E+01 0.  1.
       1023    2    1    2    0    0  0.00000000000E+00  0.00000000000E+00  0.36362427631E+02  0.41500169537E+02  0.20000948187E+02 0.  0.
        -11    1    3    3    0    0  0.63728320788E+01 -0.77065613680E+01  0.18028668996E+02  0.20616425075E+02  0.51100000000E-03 0. -1.
         11    1    3    3    0    0 -0.63728320788E+01  0.77065613680E+01  0.18333758635E+02  0.20883744462E+02  0.51100000000E-03 0.  1.
<mgrwt>
<rscale>  0 0.20000948E+02</rscale>
<asrwt>0</asrwt>
<pdfrwt beam="1">  1        4 0.59894303E-02 0.20000948E+02</pdfrwt>
<pdfrwt beam="2">  1       -4 0.39521094E-03 0.20000948E+02</pdfrwt>
<totfact> 0.11892211E+06</totfact>
</mgrwt>
</event>
<event>
 5    1  0.1154861E-006  0.2000032E+02  0.7818608E-02  0.1745322E+00
         -4   -1    0    0    0  501 -0.00000000000E+00  0.00000000000E+00  0.91403970629E+00  0.16887476380E+01  0.14200000000E+01 0.  1.
          4   -1    0    0  501    0  0.00000000000E+00 -0.00000000000E+00 -0.76059835594E+02  0.76073089792E+02  0.14200000000E+01 0. -1.
       1023    2    1    2    0    0  0.00000000000E+00  0.00000000000E+00 -0.75145795888E+02  0.77761837430E+02  0.20000318022E+02 0.  0.
        -11    1    3    3    0    0  0.97319672392E+01  0.23002390702E+01 -0.37689140086E+02  0.38993250272E+02  0.51100000000E-03 0. -1.
         11    1    3    3    0    0 -0.97319672392E+01 -0.23002390702E+01 -0.37456655802E+02  0.38768587158E+02  0.51100000000E-03 0.  1.
<mgrwt>
<rscale>  0 0.20000318E+02</rscale>
<asrwt>0</asrwt>
<pdfrwt beam="2">  1        4 0.11762122E-01 0.20000318E+02</pdfrwt>
<pdfrwt beam="1">  1       -4 0.20123402E-03 0.20000318E+02</pdfrwt>
<totfact> 0.10484601E+06</totfact>
</mgrwt>
</event>
<event>
 5    1  0.1154861E-006  0.2000694E+02  0.7818608E-02  0.1745190E+00
         -4   -1    0    0    0  501 -0.00000000000E+00  0.00000000000E+00  0.10295717753E+01  0.17539720752E+01  0.14200000000E+01 0. -1.
          4   -1    0    0  501    0  0.00000000000E+00 -0.00000000000E+00 -0.71167371131E+02  0.71181536325E+02  0.14200000000E+01 0.  1.
       1023    2    1    2    0    0  0.00000000000E+00  0.00000000000E+00 -0.70137799355E+02  0.72935508401E+02  0.20006935978E+02 0.  0.
        -11    1    3    3    0    0 -0.92791332536E+01 -0.37341246767E+01 -0.34511595186E+02  0.35931827168E+02  0.51100000000E-03 0.  1.
         11    1    3    3    0    0  0.92791332536E+01  0.37341246767E+01 -0.35626204169E+02  0.37003681233E+02  0.51100000000E-03 0. -1.
<mgrwt>
<rscale>  0 0.20006936E+02</rscale>
<asrwt>0</asrwt>
<pdfrwt beam="2">  1        4 0.11005636E-01 0.20006936E+02</pdfrwt>
<pdfrwt beam="1">  1       -4 0.21520844E-03 0.20006936E+02</pdfrwt>
<totfact> 0.10640970E+06</totfact>
</mgrwt>
</event>
<event>
 5    1  0.1154861E-006  0.2000007E+02  0.7818608E-02  0.1745327E+00
         -4   -1    0    0    0  501 -0.00000000000E+00  0.00000000000E+00  0.81914342366E+02  0.81926649420E+02  0.14200000000E+01 0.  1.
          4   -1    0    0  501    0  0.00000000000E+00 -0.00000000000E+00 -0.79119059412E+00  0.16255406966E+01  0.14200000000E+01 0. -1.
       1023    2    1    2    0    0  0.00000000000E+00  0.00000000000E+00  0.81123151771E+02  0.83552190117E+02  0.20000067998E+02 0.  0.
        -11    1    3    3    0    0 -0.36034338350E+01  0.93282178951E+01  0.40633355361E+02  0.41845787752E+02  0.51100000000E-03 0. -1.
         11    1    3    3    0    0  0.36034338350E+01 -0.93282178951E+01  0.40489796411E+02  0.41706402364E+02  0.51100000000E-03 0.  1.
<mgrwt>
<rscale>  0 0.20000068E+02</rscale>
<asrwt>0</asrwt>
<pdfrwt beam="2">  1        4 0.18684912E-03 0.20000068E+02</pdfrwt>
<pdfrwt beam="1">  1       -4 0.12667333E-01 0.20000068E+02</pdfrwt>
<totfact> 0.10296493E+06</totfact>
</mgrwt>
</event>
<event>
 4    1  0.1154861E-006  0.2005141E+02  0.7818608E-02  0.1744308E+00
          4   -1    0    0  501    0  0.00000000000E+00  0.00000000000E+00  0.58176756279E+02  0.58194083644E+02  0.14200000000E+01 0. -1.
         -4   -1    0    0    0  501 -0.00000000000E+00 -0.00000000000E+00 -0.14153437265E+01  0.20048934795E+01  0.14200000000E+01 0.  1.
        -11    1    1    2    0    0  0.88795956114E+01  0.46324163100E+01  0.27010742025E+02  0.28807753888E+02  0.51100000000E-03 0.  1.
         11    1    1    2    0    0 -0.88795956114E+01 -0.46324163100E+01  0.29750670528E+02  0.31391223235E+02  0.51100000000E-03 0. -1.
<mgrwt>
<rscale>  0 0.20051406E+02</rscale>
<asrwt>0</asrwt>
<pdfrwt beam="1">  1        4 0.89969541E-02 0.20051406E+02</pdfrwt>
<pdfrwt beam="2">  1       -4 0.26442801E-03 0.20051406E+02</pdfrwt>
<totfact> 0.11053971E+06</totfact>
</mgrwt>
</event>
<event>
 5    1  0.1154861E-006  0.2000420E+02  0.7818608E-02  0.1745245E+00
         -4   -1    0    0    0  501 -0.00000000000E+00  0.00000000000E+00  0.29813206179E+01  0.33022223769E+01  0.14200000000E+01 0.  1.
          4   -1    0    0  501    0  0.00000000000E+00 -0.00000000000E+00 -0.31504822951E+02  0.31536808164E+02  0.14200000000E+01 0.  1.
       1023    2    1    2    0    0  0.00000000000E+00  0.00000000000E+00 -0.28523502333E+02  0.34839030541E+02  0.20004196152E+02 0.  0.
        -11    1    3    3    0    0 -0.80562565221E+01  0.59252862000E+01 -0.13961712926E+02  0.17173867176E+02  0.51100000000E-03 0.  1.
         11    1    3    3    0    0  0.80562565221E+01 -0.59252862000E+01 -0.14561789407E+02  0.17665163365E+02  0.51100000000E-03 0. -1.
<mgrwt>
<rscale>  0 0.20004196E+02</rscale>
<asrwt>0</asrwt>
<pdfrwt beam="2">  1        4 0.48740408E-02 0.20004196E+02</pdfrwt>
<pdfrwt beam="1">  1       -4 0.48580988E-03 0.20004196E+02</pdfrwt>
<totfact> 0.12204733E+06</totfact>
</mgrwt>
</event>
<event>
 5    1  0.1154861E-006  0.2000137E+02  0.7818608E-02  0.1745301E+00
          4   -1    0    0  501    0  0.00000000000E+00  0.00000000000E+00  0.88085400929E+00  0.16710187868E+01  0.14200000000E+01 0. -1.
         -4   -1    0    0    0  501 -0.00000000000E+00 -0.00000000000E+00 -0.77585892013E+02  0.77598885556E+02  0.14200000000E+01 0.  1.
       1023    2    1    2    0    0  0.00000000000E+00  0.00000000000E+00 -0.76705038004E+02  0.79269904343E+02  0.20001371935E+02 0.  0.
        -11    1    3    3    0    0  0.94802309609E+01 -0.31830684675E+01 -0.38684475737E+02  0.39956168075E+02  0.51100000000E-03 0. -1.
         11    1    3    3    0    0 -0.94802309609E+01  0.31830684675E+01 -0.38020562267E+02  0.39313736267E+02  0.51100000000E-03 0.  1.
<mgrwt>
<rscale>  0 0.20001372E+02</rscale>
<asrwt>0</asrwt>
<pdfrwt beam="1">  1        4 0.19729747E-03 0.20001372E+02</pdfrwt>
<pdfrwt beam="2">  1       -4 0.11998069E-01 0.20001372E+02</pdfrwt>
<totfact> 0.10433657E+06</totfact>
</mgrwt>
</event>
<event>
 5    1  0.1154861E-006  0.2000262E+02  0.7818608E-02  0.1745276E+00
          4   -1    0    0  501    0  0.00000000000E+00  0.00000000000E+00  0.87727490685E+00  0.16691348844E+01  0.14200000000E+01 0.  1.
         -4   -1    0    0    0  501 -0.00000000000E+00 -0.00000000000E+00 -0.77762145890E+02  0.77775109987E+02  0.14200000000E+01 0.  1.
       1023    2    1    2    0    0  0.00000000000E+00  0.00000000000E+00 -0.76884870983E+02  0.79444244871E+02  0.20002616254E+02 0.  0.
        -11    1    3    3    0    0  0.20917578039E+01  0.97796694389E+01 -0.38070303608E+02  0.39361979144E+02  0.51100000000E-03 0. -1.
         11    1    3    3    0    0 -0.20917578039E+01 -0.97796694389E+01 -0.38814567376E+02  0.40082265728E+02  0.51100000000E-03 0.  1.
<mgrwt>
<rscale>  0 0.20002616E+02</rscale>
<asrwt>0</asrwt>
<pdfrwt beam="1">  1        4 0.19687498E-03 0.20002616E+02</pdfrwt>
<pdfrwt beam="2">  1       -4 0.12025313E-01 0.20002616E+02</pdfrwt>
<totfact> 0.10426633E+06</totfact>
</mgrwt>
</event>
<event>
 5    1  0.1154861E-006  0.2000031E+02  0.7818608E-02  0.1745322E+00
         -4   -1    0    0    0  501 -0.00000000000E+00  0.00000000000E+00  0.22836887650E+01  0.26891698301E+01  0.14200000000E+01 0.  1.
          4   -1    0    0  501    0  0.00000000000E+00 -0.00000000000E+00 -0.39800373913E+02  0.39825697277E+02  0.14200000000E+01 0. -1.
       1023    2    1    2    0    0  0.00000000000E+00  0.00000000000E+00 -0.37516685148E+02  0.42514867107E+02  0.20000306514E+02 0.  0.
        -11    1    3    3    0    0  0.99864418155E+01  0.52163164709E+00 -0.18664589510E+02  0.21174702396E+02  0.51100000000E-03 0.  1.
         11    1    3    3    0    0 -0.99864418155E+01 -0.52163164709E+00 -0.18852095638E+02  0.21340164711E+02  0.51100000000E-03 0. -1.
<mgrwt>
<rscale>  0 0.20000307E+02</rscale>
<asrwt>0</asrwt>
<pdfrwt beam="2">  1        4 0.61562728E-02 0.20000307E+02</pdfrwt>
<pdfrwt beam="1">  1       -4 0.38447556E-03 0.20000307E+02</pdfrwt>
<totfact> 0.11846759E+06</totfact>
</mgrwt>
</event>
<event>
 5    1  0.1154861E-006  0.2000274E+02  0.7818608E-02  0.1745274E+00
          4   -1    0    0  501    0  0.00000000000E+00  0.00000000000E+00  0.14255816671E+02  0.14326364122E+02  0.14200000000E+01 0.  1.
         -4   -1    0    0    0  501 -0.00000000000E+00 -0.00000000000E+00 -0.68558008775E+01  0.70013145674E+01  0.14200000000E+01 0. -1.
       1023    2    1    2    0    0  0.00000000000E+00  0.00000000000E+00  0.74000157938E+01  0.21327678690E+02  0.20002740926E+02 0.  0.
        -11    1    3    3    0    0 -0.99147321858E+01 -0.13072839679E+01  0.35630256493E+01  0.10616310928E+02  0.51100000000E-03 0. -1.
         11    1    3    3    0    0  0.99147321858E+01  0.13072839679E+01  0.38369901445E+01  0.10711367761E+02  0.51100000000E-03 0.  1.
<mgrwt>
<rscale>  0 0.20002741E+02</rscale>
<asrwt>0</asrwt>
<pdfrwt beam="1">  1        4 0.22098226E-02 0.20002741E+02</pdfrwt>
<pdfrwt beam="2">  1       -4 0.10713587E-02 0.20002741E+02</pdfrwt>
<totfact> 0.12931848E+06</totfact>
</mgrwt>
</event>
<event>
 5    1  0.1154861E-006  0.2000048E+02  0.7818608E-02  0.1745319E+00
          4   -1    0    0  501    0  0.00000000000E+00  0.00000000000E+00  0.55189752088E+02  0.55208016949E+02  0.14200000000E+01 0. -1.
         -4   -1    0    0    0  501 -0.00000000000E+00 -0.00000000000E+00 -0.15123205797E+01  0.20744911510E+01  0.14200000000E+01 0.  1.
       1023    2    1    2    0    0  0.00000000000E+00  0.00000000000E+00  0.53677431508E+02  0.57282508100E+02  0.20000477019E+02 0.  0.
        -11    1    3    3    0    0 -0.99158682857E+01 -0.12945916751E+01  0.26649633259E+02  0.28464071468E+02  0.51100000000E-03 0. -1.
         11    1    3    3    0    0  0.99158682857E+01  0.12945916751E+01  0.27027798249E+02  0.28818436632E+02  0.51100000000E-03 0.  1.
<mgrwt>
<rscale>  0 0.20000477E+02</rscale>
<asrwt>0</asrwt>
<pdfrwt beam="1">  1        4 0.85353804E-02 0.20000477E+02</pdfrwt>
<pdfrwt beam="2">  1       -4 0.27731357E-03 0.20000477E+02</pdfrwt>
<totfact> 0.11223787E+06</totfact>
</mgrwt>
</event>
<event>
 5    1  0.1154861E-006  0.2000038E+02  0.7818608E-02  0.1745320E+00
          4   -1    0    0  501    0  0.00000000000E+00  0.00000000000E+00  0.77344664369E+01  0.78637377286E+01  0.14200000000E+01 0.  1.
         -4   -1    0    0    0  501 -0.00000000000E+00 -0.00000000000E+00 -0.12653165766E+02  0.12732596118E+02  0.14200000000E+01 0. -1.
       1023    2    1    2    0    0  0.00000000000E+00  0.00000000000E+00 -0.49186993289E+01  0.20596333846E+02  0.20000384117E+02 0.  0.
        -11    1    3    3    0    0  0.20380185630E+01  0.97901602463E+01 -0.25165347677E+01  0.10311823544E+02  0.51100000000E-03 0.  1.
         11    1    3    3    0    0 -0.20380185630E+01 -0.97901602463E+01 -0.24021645612E+01  0.10284510302E+02  0.51100000000E-03 0. -1.
<mgrwt>
<rscale>  0 0.20000384E+02</rscale>
<asrwt>0</asrwt>
<pdfrwt beam="1">  1        4 0.12059719E-02 0.20000384E+02</pdfrwt>
<pdfrwt beam="2">  1       -4 0.19626949E-02 0.20000384E+02</pdfrwt>
<totfact> 0.12978114E+06</totfact>
</mgrwt>
</event>
<event>
 5    1  0.1162140E-006  0.2000093E+02  0.7818608E-02  0.1745310E+00
         -4   -1    0    0    0  501 -0.00000000000E+00  0.00000000000E+00  0.31803897426E+02  0.31835582161E+02  0.14200000000E+01 0.  1.
          4   -1    0    0  501    0  0.00000000000E+00 -0.00000000000E+00 -0.29492039846E+01  0.32732558933E+01  0.14200000000E+01 0. -1.
       1023    2    1    2    0    0  0.00000000000E+00  0.00000000000E+00  0.28854693442E+02  0.35108838054E+02  0.20000929375E+02 0.  0.
        -11    1    3    3    0    0 -0.35861259847E+01 -0.93351957272E+01  0.14525315111E+02  0.17634935729E+02  0.51100000000E-03 0. -1.
         11    1    3    3    0    0  0.35861259847E+01  0.93351957272E+01  0.14329378331E+02  0.17473902325E+02  0.51100000000E-03 0.  1.
<mgrwt>
<rscale>  0 0.20000929E+02</rscale>
<asrwt>0</asrwt>
<pdfrwt beam="2">  1        4 0.48108805E-03 0.20000929E+02</pdfrwt>
<pdfrwt beam="1">  1       -4 0.49202717E-02 0.20000929E+02</pdfrwt>
<totfact> 0.12195481E+06</totfact>
</mgrwt>
</event>
<event>
 5    1  0.1210788E-006  0.2000123E+02  0.7818608E-02  0.1745304E+00
          4   -1    0    0  501    0  0.00000000000E+00  0.00000000000E+00  0.59563591671E+01  0.61232846191E+01  0.14200000000E+01 0. -1.
         -4   -1    0    0    0  501 -0.00000000000E+00 -0.00000000000E+00 -0.16360711209E+02  0.16422218829E+02  0.14200000000E+01 0.  1.
       1023    2    1    2    0    0  0.00000000000E+00  0.00000000000E+00 -0.10404352042E+02  0.22545503448E+02  0.20001229570E+02 0.  0.
        -11    1    3    3    0    0 -0.18340299506E+01  0.98307207400E+01 -0.52862242670E+01  0.11311538507E+02  0.51100000000E-03 0.  1.
         11    1    3    3    0    0  0.18340299506E+01 -0.98307207400E+01 -0.51181277754E+01  0.11233964942E+02  0.51100000000E-03 0. -1.
<mgrwt>
<rscale>  0 0.20001230E+02</rscale>
<asrwt>0</asrwt>
<pdfrwt beam="1">  1        4 0.93393473E-03 0.20001230E+02</pdfrwt>
<pdfrwt beam="2">  1       -4 0.25346042E-02 0.20001230E+02</pdfrwt>
<totfact> 0.12863064E+06</totfact>
</mgrwt>
</event>
<event>
 5    1  0.1154861E-006  0.2000060E+02  0.7818608E-02  0.1745316E+00
          4   -1    0    0  501    0  0.00000000000E+00  0.00000000000E+00  0.10908886722E+01  0.17906529801E+01  0.14200000000E+01 0.  1.
         -4   -1    0    0    0  501 -0.00000000000E+00 -0.00000000000E+00 -0.68702586646E+02  0.68717259927E+02  0.14200000000E+01 0. -1.
       1023    2    1    2    0    0  0.00000000000E+00  0.00000000000E+00 -0.67611697974E+02  0.70507912907E+02  0.20000601981E+02 0.  0.
        -11    1    3    3    0    0 -0.30256051932E+01 -0.95316070868E+01 -0.33855603665E+02  0.35301667386E+02  0.51100000000E-03 0. -1.
         11    1    3    3    0    0  0.30256051932E+01  0.95316070868E+01 -0.33756094309E+02  0.35206245521E+02  0.51100000000E-03 0.  1.
<mgrwt>
<rscale>  0 0.20000602E+02</rscale>
<asrwt>0</asrwt>
<pdfrwt beam="1">  1        4 0.22278582E-03 0.20000602E+02</pdfrwt>
<pdfrwt beam="2">  1       -4 0.10624583E-01 0.20000602E+02</pdfrwt>
<totfact> 0.10732258E+06</totfact>
</mgrwt>
</event>
<event>
 5    1  0.1154861E-006  0.2000104E+02  0.7818608E-02  0.1745307E+00
          4   -1    0    0  501    0  0.00000000000E+00  0.00000000000E+00  0.95193128548E+00  0.17095535009E+01  0.14200000000E+01 0. -1.
         -4   -1    0    0    0  501 -0.00000000000E+00 -0.00000000000E+00 -0.74387549823E+02  0.74401101932E+02  0.14200000000E+01 0. -1.
       1023    2    1    2    0    0  0.00000000000E+00  0.00000000000E+00 -0.73435618538E+02  0.76110655433E+02  0.20001044983E+02 0.  0.
        -11    1    3    3    0    0  0.63115741772E+00 -0.99803111671E+01 -0.36436133286E+02  0.37783551709E+02  0.51100000000E-03 0.  1.
         11    1    3    3    0    0 -0.63115741772E+00  0.99803111671E+01 -0.36999485252E+02  0.38327103724E+02  0.51100000000E-03 0. -1.
<mgrwt>
<rscale>  0 0.20001045E+02</rscale>
<asrwt>0</asrwt>
<pdfrwt beam="1">  1        4 0.20577213E-03 0.20001045E+02</pdfrwt>
<pdfrwt beam="2">  1       -4 0.11503556E-01 0.20001045E+02</pdfrwt>
<totfact> 0.10539063E+06</totfact>
</mgrwt>
</event>
<event>
 5    1  0.1154861E-006  0.2000003E+02  0.7818608E-02  0.1745327E+00
          4   -1    0    0  501    0  0.00000000000E+00  0.00000000000E+00  0.14434333438E+02  0.14504012610E+02  0.14200000000E+01 0.  1.
         -4   -1    0    0    0  501 -0.00000000000E+00 -0.00000000000E+00 -0.67677274546E+01  0.69150947137E+01  0.14200000000E+01 0. -1.
       1023    2    1    2    0    0  0.00000000000E+00  0.00000000000E+00  0.76666059834E+01  0.21419107324E+02  0.20000032781E+02 0.  0.
        -11    1    3    3    0    0  0.99720108647E+01  0.74788107948E+00  0.38342343089E+01  0.10709887011E+02  0.51100000000E-03 0. -1.
         11    1    3    3    0    0 -0.99720108647E+01 -0.74788107948E+00  0.38323716745E+01  0.10709220313E+02  0.51100000000E-03 0.  1.
<mgrwt>
<rscale>  0 0.20000033E+02</rscale>
<asrwt>0</asrwt>
<pdfrwt beam="1">  1        4 0.22373626E-02 0.20000033E+02</pdfrwt>
<pdfrwt beam="2">  1       -4 0.10578847E-02 0.20000033E+02</pdfrwt>
<totfact> 0.12930059E+06</totfact>
</mgrwt>
</event>
<event>
 5    1  0.1154861E-006  0.2000110E+02  0.7818608E-02  0.1745306E+00
         -4   -1    0    0    0  501 -0.00000000000E+00  0.00000000000E+00  0.93007023012E+02  0.93017862422E+02  0.14200000000E+01 0. -1.
          4   -1    0    0  501    0  0.00000000000E+00 -0.00000000000E+00 -0.59076518006E+00  0.15379868328E+01  0.14200000000E+01 0.  1.
       1023    2    1    2    0    0  0.00000000000E+00  0.00000000000E+00  0.92416257832E+02  0.94555849255E+02  0.20001097886E+02 0.  0.
        -11    1    3    3    0    0 -0.46580200057E+00 -0.99894386314E+01  0.46546510175E+02  0.47608649061E+02  0.51100000000E-03 0. -1.
         11    1    3    3    0    0  0.46580200057E+00  0.99894386314E+01  0.45869747656E+02  0.46947200193E+02  0.51100000000E-03 0.  1.
<mgrwt>
<rscale>  0 0.20001098E+02</rscale>
<asrwt>0</asrwt>
<pdfrwt beam="2">  1        4 0.16458389E-03 0.20001098E+02</pdfrwt>
<pdfrwt beam="1">  1       -4 0.14382475E-01 0.20001098E+02</pdfrwt>
<totfact> 0.99579991E+05</totfact>
</mgrwt>
</event>
<event>
 4    1  0.1154861E-006  0.2011142E+02  0.7818608E-02  0.1743121E+00
         -4   -1    0    0    0  501 -0.00000000000E+00  0.00000000000E+00  0.15032989571E+02  0.15099906472E+02  0.14200000000E+01 0.  1.
          4   -1    0    0  501    0  0.00000000000E+00 -0.00000000000E+00 -0.65684651449E+01  0.67202034463E+01  0.14200000000E+01 0.  1.
        -11    1    1    2    0    0  0.57947964938E+01 -0.81972608811E+01  0.48672225311E+01  0.11156370726E+02  0.51100000000E-03 0. -1.
         11    1    1    2    0    0 -0.57947964938E+01  0.81972608811E+01  0.35973018955E+01  0.10663739192E+02  0.51100000000E-03 0.  1.
<mgrwt>
<rscale>  0 0.20111415E+02</rscale>
<asrwt>0</asrwt>
<pdfrwt beam="2">  1        4 0.10273527E-02 0.20111415E+02</pdfrwt>
<pdfrwt beam="1">  1       -4 0.23295872E-02 0.20111415E+02</pdfrwt>
<totfact> 0.12761161E+06</totfact>
</mgrwt>
</event>
<event>
 5    1  0.1154861E-006  0.2000037E+02  0.7818608E-02  0.1745321E+00
          4   -1    0    0  501    0  0.00000000000E+00  0.00000000000E+00  0.52862066294E+02  0.52881135132E+02  0.14200000000E+01 0.  1.
         -4   -1    0    0    0  501 -0.00000000000E+00 -0.00000000000E+00 -0.16030893931E+01  0.21415638216E+01  0.14200000000E+01 0. -1.
       1023    2    1    2    0    0  0.00000000000E+00  0.00000000000E+00  0.51258976901E+02  0.55022698954E+02  0.20000367178E+02 0.  0.
        -11    1    3    3    0    0  0.27482618948E+01  0.96151077061E+01  0.25686662370E+02  0.27564612524E+02  0.51100000000E-03 0.  1.
         11    1    3    3    0    0 -0.27482618948E+01 -0.96151077061E+01  0.25572314532E+02  0.27458086430E+02  0.51100000000E-03 0. -1.
<mgrwt>
<rscale>  0 0.20000367E+02</rscale>
<asrwt>0</asrwt>
<pdfrwt beam="1">  1        4 0.81755143E-02 0.20000367E+02</pdfrwt>
<pdfrwt beam="2">  1       -4 0.28951705E-03 0.20000367E+02</pdfrwt>
<totfact> 0.11313581E+06</totfact>
</mgrwt>
</event>
<event>
 5    1  0.1154861E-006  0.2000261E+02  0.7818608E-02  0.1745276E+00
          4   -1    0    0  501    0  0.00000000000E+00  0.00000000000E+00  0.16178476267E+01  0.21526334902E+01  0.14200000000E+01 0.  1.
         -4   -1    0    0    0  501 -0.00000000000E+00 -0.00000000000E+00 -0.52511711186E+02  0.52530907204E+02  0.14200000000E+01 0. -1.
       1023    2    1    2    0    0  0.00000000000E+00  0.00000000000E+00 -0.50893863559E+02  0.54683540694E+02  0.20002606702E+02 0.  0.
        -11    1    3    3    0    0 -0.99583726169E+01  0.92260689211E+00 -0.25240898820E+02  0.27150015878E+02  0.51100000000E-03 0. -1.
         11    1    3    3    0    0  0.99583726169E+01 -0.92260689211E+00 -0.25652964739E+02  0.27533524817E+02  0.51100000000E-03 0.  1.
<mgrwt>
<rscale>  0 0.20002607E+02</rscale>
<asrwt>0</asrwt>
<pdfrwt beam="1">  1        4 0.29151367E-03 0.20002607E+02</pdfrwt>
<pdfrwt beam="2">  1       -4 0.81213377E-02 0.20002607E+02</pdfrwt>
<totfact> 0.11324645E+06</totfact>
</mgrwt>
</event>
<event>
 5    1  0.1154861E-006  0.2000047E+02  0.7818608E-02  0.1745319E+00
         -4   -1    0    0    0  501 -0.00000000000E+00  0.00000000000E+00  0.56706555018E+02  0.56724331481E+02  0.14200000000E+01 0.  1.
          4   -1    0    0  501    0  0.00000000000E+00 -0.00000000000E+00 -0.14566414010E+01  0.20342576462E+01  0.14200000000E+01 0. -1.
       1023    2    1    2    0    0  0.00000000000E+00  0.00000000000E+00  0.55249913617E+02  0.58758589128E+02  0.20000471034E+02 0.  0.
        -11    1    3    3    0    0 -0.81360840254E+01  0.58144642877E+01  0.27539208038E+02  0.29298666145E+02  0.51100000000E-03 0. -1.
         11    1    3    3    0    0  0.81360840254E+01 -0.58144642877E+01  0.27710705579E+02  0.29459922983E+02  0.51100000000E-03 0.  1.
<mgrwt>
<rscale>  0 0.20000471E+02</rscale>
<asrwt>0</asrwt>
<pdfrwt beam="2">  1        4 0.26989810E-03 0.20000471E+02</pdfrwt>
<pdfrwt beam="1">  1       -4 0.87698852E-02 0.20000471E+02</pdfrwt>
<totfact> 0.11166204E+06</totfact>
</mgrwt>
</event>
<event>
 5    1  0.1154861E-006  0.2000025E+02  0.7818608E-02  0.1745323E+00
         -4   -1    0    0    0  501 -0.00000000000E+00  0.00000000000E+00  0.62496831524E+02  0.62512961461E+02  0.14200000000E+01 0.  1.
          4   -1    0    0  501    0  0.00000000000E+00 -0.00000000000E+00 -0.12654476212E+01  0.19020403997E+01  0.14200000000E+01 0. -1.
       1023    2    1    2    0    0  0.00000000000E+00  0.00000000000E+00  0.61231383903E+02  0.64415001860E+02  0.20000252248E+02 0.  0.
        -11    1    3    3    0    0  0.83262472871E+01 -0.55385759523E+01  0.30671917901E+02  0.32260947994E+02  0.51100000000E-03 0. -1.
         11    1    3    3    0    0 -0.83262472871E+01  0.55385759523E+01  0.30559466002E+02  0.32154053867E+02  0.51100000000E-03 0.  1.
<mgrwt>
<rscale>  0 0.20000252E+02</rscale>
<asrwt>0</asrwt>
<pdfrwt beam="2">  1        4 0.24489365E-03 0.20000252E+02</pdfrwt>
<pdfrwt beam="1">  1       -4 0.96651082E-02 0.20000252E+02</pdfrwt>
<totfact> 0.10952260E+06</totfact>
</mgrwt>
</event>
<event>
 4    1  0.1154861E-006  0.2011438E+02  0.7818608E-02  0.1743063E+00
          4   -1    0    0  501    0  0.00000000000E+00  0.00000000000E+00  0.12042619661E+03  0.12043456825E+03  0.14200000000E+01 0.  1.
         -4   -1    0    0    0  501 -0.00000000000E+00 -0.00000000000E+00 -0.22522478654E+00  0.14377503971E+01  0.14200000000E+01 0. -1.
        -11    1    1    2    0    0  0.40491596039E+01 -0.92058293614E+01  0.59711653844E+02  0.60552659667E+02  0.51100000000E-03 0. -1.
         11    1    1    2    0    0 -0.40491596039E+01  0.92058293614E+01  0.60489317980E+02  0.61319658982E+02  0.51100000000E-03 0.  1.
<mgrwt>
<rscale>  0 0.20114384E+02</rscale>
<asrwt>0</asrwt>
<pdfrwt beam="1">  1        4 0.18621030E-01 0.20114384E+02</pdfrwt>
<pdfrwt beam="2">  1       -4 0.12856509E-03 0.20114384E+02</pdfrwt>
<totfact> 0.91148818E+05</totfact>
</mgrwt>
</event>
<event>
 5    1  0.1186498E-006  0.2000109E+02  0.7818608E-02  0.1745306E+00
         -4   -1    0    0    0  501 -0.00000000000E+00  0.00000000000E+00  0.25103376979E+02  0.25143506831E+02  0.14200000000E+01 0. -1.
          4   -1    0    0  501    0  0.00000000000E+00 -0.00000000000E+00 -0.38126206960E+01  0.40684734940E+01  0.14200000000E+01 0.  1.
       1023    2    1    2    0    0  0.00000000000E+00  0.00000000000E+00  0.21290756283E+02  0.29211980325E+02  0.20001087255E+02 0.  0.
        -11    1    3    3    0    0 -0.82703513686E+01  0.56220235025E+01  0.10541974111E+02  0.14530625535E+02  0.51100000000E-03 0.  1.
         11    1    3    3    0    0  0.82703513686E+01 -0.56220235025E+01  0.10748782172E+02  0.14681354790E+02  0.51100000000E-03 0. -1.
<mgrwt>
<rscale>  0 0.20001087E+02</rscale>
<asrwt>0</asrwt>
<pdfrwt beam="2">  1        4 0.60932492E-03 0.20001087E+02</pdfrwt>
<pdfrwt beam="1">  1       -4 0.38848259E-02 0.20001087E+02</pdfrwt>
<totfact> 0.12495724E+06</totfact>
</mgrwt>
</event>
<event>
 5    1  0.1197726E-006  0.2000158E+02  0.7818608E-02  0.1745297E+00
          4   -1    0    0  501    0  0.00000000000E+00  0.00000000000E+00  0.13002236284E+02  0.13079546948E+02  0.14200000000E+01 0.  1.
         -4   -1    0    0    0  501 -0.00000000000E+00 -0.00000000000E+00 -0.75254911377E+01  0.76582907273E+01  0.14200000000E+01 0. -1.
       1023    2    1    2    0    0  0.00000000000E+00  0.00000000000E+00  0.54767451459E+01  0.20737837676E+02  0.20001579289E+02 0.  0.
        -11    1    3    3    0    0  0.51657489318E+01  0.85631493559E+01  0.27979718998E+01  0.10384658682E+02  0.51100000000E-03 0. -1.
         11    1    3    3    0    0 -0.51657489318E+01 -0.85631493559E+01  0.26787732460E+01  0.10353178994E+02  0.51100000000E-03 0.  1.
<mgrwt>
<rscale>  0 0.20001579E+02</rscale>
<asrwt>0</asrwt>
<pdfrwt beam="1">  1        4 0.20165064E-02 0.20001579E+02</pdfrwt>
<pdfrwt beam="2">  1       -4 0.11739302E-02 0.20001579E+02</pdfrwt>
<totfact> 0.12968172E+06</totfact>
</mgrwt>
</event>
<event>
 5    1  0.1154861E-006  0.2000019E+02  0.7818608E-02  0.1745324E+00
         -4   -1    0    0    0  501 -0.00000000000E+00  0.00000000000E+00  0.67949167518E+00  0.15742010471E+01  0.14200000000E+01 0.  1.
          4   -1    0    0  501    0  0.00000000000E+00 -0.00000000000E+00 -0.87842175483E+02  0.87853652135E+02  0.14200000000E+01 0. -1.
       1023    2    1    2    0    0  0.00000000000E+00  0.00000000000E+00 -0.87162683807E+02  0.89427853182E+02  0.20000186907E+02 0.  0.
        -11    1    3    3    0    0  0.98805714695E+01 -0.15414595960E+01 -0.43620974651E+02  0.44752555458E+02  0.51100000000E-03 0. -1.
         11    1    3    3    0    0 -0.98805714695E+01  0.15414595960E+01 -0.43541709156E+02  0.44675297724E+02  0.51100000000E-03 0.  1.
<mgrwt>
<rscale>  0 0.20000187E+02</rscale>
<asrwt>0</asrwt>
<pdfrwt beam="2">  1        4 0.13583882E-01 0.20000187E+02</pdfrwt>
<pdfrwt beam="1">  1       -4 0.17424387E-03 0.20000187E+02</pdfrwt>
<totfact> 0.10112980E+06</totfact>
</mgrwt>
</event>
<event>
 5    1  0.1180198E-006  0.2000080E+02  0.7818608E-02  0.1745312E+00
          4   -1    0    0  501    0  0.00000000000E+00  0.00000000000E+00  0.27809116306E+02  0.27845347003E+02  0.14200000000E+01 0.  1.
         -4   -1    0    0    0  501 -0.00000000000E+00 -0.00000000000E+00 -0.34158701406E+01  0.36992659836E+01  0.14200000000E+01 0. -1.
       1023    2    1    2    0    0  0.00000000000E+00  0.00000000000E+00  0.24393246166E+02  0.31544612987E+02  0.20000803734E+02 0.  0.
        -11    1    3    3    0    0 -0.96739509472E+01 -0.25331701491E+01  0.12076931735E+02  0.15679749944E+02  0.51100000000E-03 0. -1.
         11    1    3    3    0    0  0.96739509472E+01  0.25331701491E+01  0.12316314431E+02  0.15864863042E+02  0.51100000000E-03 0.  1.
<mgrwt>
<rscale>  0 0.20000804E+02</rscale>
<asrwt>0</asrwt>
<pdfrwt beam="1">  1        4 0.43029122E-02 0.20000804E+02</pdfrwt>
<pdfrwt beam="2">  1       -4 0.55010514E-03 0.20000804E+02</pdfrwt>
<totfact> 0.12374777E+06</totfact>
</mgrwt>
</event>
<event>
 5    1  0.1154861E-006  0.2000036E+02  0.7818608E-02  0.1745321E+00
         -4   -1    0    0    0  501 -0.00000000000E+00  0.00000000000E+00  0.98816927699E+00  0.17299937919E+01  0.14200000000E+01 0. -1.
          4   -1    0    0  501    0  0.00000000000E+00 -0.00000000000E+00 -0.72831121325E+02  0.72844962993E+02  0.14200000000E+01 0.  1.
       1023    2    1    2    0    0  0.00000000000E+00  0.00000000000E+00 -0.71842952048E+02  0.74574956785E+02  0.20000360509E+02 0.  0.
        -11    1    3    3    0    0  0.15565454681E+01 -0.98781839877E+01 -0.35744523683E+02  0.37117008584E+02  0.51100000000E-03 0. -1.
         11    1    3    3    0    0 -0.15565454681E+01  0.98781839877E+01 -0.36098428366E+02  0.37457948201E+02  0.51100000000E-03 0.  1.
<mgrwt>
<rscale>  0 0.20000361E+02</rscale>
<asrwt>0</asrwt>
<pdfrwt beam="2">  1        4 0.11262913E-01 0.20000361E+02</pdfrwt>
<pdfrwt beam="1">  1       -4 0.21015427E-03 0.20000361E+02</pdfrwt>
<totfact> 0.10591785E+06</totfact>
</mgrwt>
</event>
<event>
 5    1  0.1154861E-006  0.2000344E+02  0.7818608E-02  0.1745260E+00
         -4   -1    0    0    0  501 -0.00000000000E+00  0.00000000000E+00  0.51572969725E+01  0.53492160232E+01  0.14200000000E+01 0.  1.
          4   -1    0    0  501    0  0.00000000000E+00 -0.00000000000E+00 -0.18823218205E+02  0.18876703727E+02  0.14200000000E+01 0. -1.
       1023    2    1    2    0    0  0.00000000000E+00  0.00000000000E+00 -0.13665921233E+02  0.24225919750E+02  0.20003444319E+02 0.  0.
        -11    1    3    3    0    0 -0.35218813791E+01  0.93611073329E+01 -0.68067903215E+01  0.12098197126E+02  0.51100000000E-03 0.  1.
         11    1    3    3    0    0  0.35218813791E+01 -0.93611073329E+01 -0.68591309112E+01  0.12127722625E+02  0.51100000000E-03 0. -1.
<mgrwt>
<rscale>  0 0.20003444E+02</rscale>
<asrwt>0</asrwt>
<pdfrwt beam="2">  1        4 0.29147570E-02 0.20003444E+02</pdfrwt>
<pdfrwt beam="1">  1       -4 0.81230759E-03 0.20003444E+02</pdfrwt>
<totfact> 0.12764556E+06</totfact>
</mgrwt>
</event>
<event>
 5    1  0.1155837E-006  0.2000073E+02  0.7818608E-02  0.1745314E+00
          4   -1    0    0  501    0  0.00000000000E+00  0.00000000000E+00  0.17162168815E+02  0.17220814105E+02  0.14200000000E+01 0. -1.
         -4   -1    0    0    0  501 -0.00000000000E+00 -0.00000000000E+00 -0.56709182755E+01  0.58459998365E+01  0.14200000000E+01 0.  1.
       1023    2    1    2    0    0  0.00000000000E+00  0.00000000000E+00  0.11491250539E+02  0.23066813941E+02  0.20000726648E+02 0.  0.
        -11    1    3    3    0    0 -0.86432125488E+01 -0.50296345654E+01  0.58265152113E+01  0.11573704109E+02  0.51100000000E-03 0.  1.
         11    1    3    3    0    0  0.86432125488E+01  0.50296345654E+01  0.56647353280E+01  0.11493109833E+02  0.51100000000E-03 0. -1.
<mgrwt>
<rscale>  0 0.20000727E+02</rscale>
<asrwt>0</asrwt>
<pdfrwt beam="1">  1        4 0.26583126E-02 0.20000727E+02</pdfrwt>
<pdfrwt beam="2">  1       -4 0.89042797E-03 0.20000727E+02</pdfrwt>
<totfact> 0.12833804E+06</totfact>
</mgrwt>
</event>
<event>
 5    1  0.1154861E-006  0.2000053E+02  0.7818608E-02  0.1745318E+00
         -4   -1    0    0    0  501 -0.00000000000E+00  0.00000000000E+00  0.18405477876E+01  0.23246539868E+01  0.14200000000E+01 0.  1.
          4   -1    0    0  501    0  0.00000000000E+00 -0.00000000000E+00 -0.47523474137E+02  0.47544684183E+02  0.14200000000E+01 0. -1.
       1023    2    1    2    0    0  0.00000000000E+00  0.00000000000E+00 -0.45682926349E+02  0.49869338170E+02  0.20000528234E+02 0.  0.
        -11    1    3    3    0    0  0.31754831762E+01  0.94826603629E+01 -0.22773580946E+02  0.24872485407E+02  0.51100000000E-03 0.  1.
         11    1    3    3    0    0 -0.31754831762E+01 -0.94826603629E+01 -0.22909345404E+02  0.24996852763E+02  0.51100000000E-03 0. -1.
<mgrwt>
<rscale>  0 0.20000528E+02</rscale>
<asrwt>0</asrwt>
<pdfrwt beam="2">  1        4 0.73501734E-02 0.20000528E+02</pdfrwt>
<pdfrwt beam="1">  1       -4 0.32203171E-03 0.20000528E+02</pdfrwt>
<totfact> 0.11525101E+06</totfact>
</mgrwt>
</event>
<event>
 5    1  0.1154861E-006  0.2000086E+02  0.7818608E-02  0.1745311E+00
         -4   -1    0    0    0  501 -0.00000000000E+00  0.00000000000E+00  0.16067557962E+01  0.21443097231E+01  0.14200000000E+01 0. -1.
          4   -1    0    0  501    0  0.00000000000E+00 -0.00000000000E+00 -0.52774294910E+02  0.52793395451E+02  0.14200000000E+01 0.  1.
       1023    2    1    2    0    0  0.00000000000E+00  0.00000000000E+00 -0.51167539113E+02  0.54937705174E+02  0.20000859752E+02 0.  0.
        -11    1    3    3    0    0 -0.55611674623E+01 -0.83113684694E+01 -0.25429166085E+02  0.27324858964E+02  0.51100000000E-03 0.  1.
         11    1    3    3    0    0  0.55611674623E+01  0.83113684694E+01 -0.25738373028E+02  0.27612846209E+02  0.51100000000E-03 0. -1.
<mgrwt>
<rscale>  0 0.20000860E+02</rscale>
<asrwt>0</asrwt>
<pdfrwt beam="2">  1        4 0.81619407E-02 0.20000860E+02</pdfrwt>
<pdfrwt beam="1">  1       -4 0.29001282E-03 0.20000860E+02</pdfrwt>
<totfact> 0.11316429E+06</totfact>
</mgrwt>
</event>
<event>
 5    1  0.1154861E-006  0.2000050E+02  0.7818608E-02  0.1745318E+00
         -4   -1    0    0    0  501 -0.00000000000E+00  0.00000000000E+00  0.25271114660E+00  0.14423116597E+01  0.14200000000E+01 0. -1.
          4   -1    0    0  501    0  0.00000000000E+00 -0.00000000000E+00 -0.11680150387E+03  0.11681013529E+03  0.14200000000E+01 0.  1.
       1023    2    1    2    0    0  0.00000000000E+00  0.00000000000E+00 -0.11654879272E+03  0.11825244695E+03  0.20000503097E+02 0.  0.
        -11    1    3    3    0    0  0.98576068651E+01 -0.16816984607E+01 -0.58671367435E+02  0.59517475415E+02  0.51100000000E-03 0. -1.
         11    1    3    3    0    0 -0.98576068651E+01  0.16816984607E+01 -0.57877425290E+02  0.58734971536E+02  0.51100000000E-03 0.  1.
<mgrwt>
<rscale>  0 0.20000503E+02</rscale>
<asrwt>0</asrwt>
<pdfrwt beam="2">  1        4 0.18061621E-01 0.20000503E+02</pdfrwt>
<pdfrwt beam="1">  1       -4 0.13105042E-03 0.20000503E+02</pdfrwt>
<totfact> 0.93095795E+05</totfact>
</mgrwt>
</event>
<event>
 5    1  0.1154861E-006  0.2000018E+02  0.7818608E-02  0.1745324E+00
         -4   -1    0    0    0  501 -0.00000000000E+00  0.00000000000E+00  0.54830264109E+02  0.54848648682E+02  0.14200000000E+01 0. -1.
          4   -1    0    0  501    0  0.00000000000E+00 -0.00000000000E+00 -0.15258435368E+01  0.20843700484E+01  0.14200000000E+01 0.  1.
       1023    2    1    2    0    0  0.00000000000E+00  0.00000000000E+00  0.53304420572E+02  0.56933018731E+02  0.20000184230E+02 0.  0.
        -11    1    3    3    0    0  0.93796968308E+01  0.34672126293E+01  0.26764858724E+02  0.28571978210E+02  0.51100000000E-03 0.  1.
         11    1    3    3    0    0 -0.93796968308E+01 -0.34672126293E+01  0.26539561849E+02  0.28361040521E+02  0.51100000000E-03 0. -1.
<mgrwt>
<rscale>  0 0.20000184E+02</rscale>
<asrwt>0</asrwt>
<pdfrwt beam="2">  1        4 0.27912295E-03 0.20000184E+02</pdfrwt>
<pdfrwt beam="1">  1       -4 0.84798027E-02 0.20000184E+02</pdfrwt>
<totfact> 0.11237866E+06</totfact>
</mgrwt>
</event>
<event>
 5    1  0.1154861E-006  0.2000036E+02  0.7818608E-02  0.1745321E+00
          4   -1    0    0  501    0  0.00000000000E+00  0.00000000000E+00  0.13940561747E+01  0.19899227669E+01  0.14200000000E+01 0. -1.
         -4   -1    0    0    0  501 -0.00000000000E+00 -0.00000000000E+00 -0.58498127495E+02  0.58515359696E+02  0.14200000000E+01 0.  1.
       1023    2    1    2    0    0  0.00000000000E+00  0.00000000000E+00 -0.57104071320E+02  0.60505282463E+02  0.20000356112E+02 0.  0.
        -11    1    3    3    0    0  0.96001438110E+01  0.27999150999E+01 -0.28444008225E+02  0.30150686392E+02  0.51100000000E-03 0. -1.
         11    1    3    3    0    0 -0.96001438110E+01 -0.27999150999E+01 -0.28660063095E+02  0.30354596071E+02  0.51100000000E-03 0.  1.
<mgrwt>
<rscale>  0 0.20000356E+02</rscale>
<asrwt>0</asrwt>
<pdfrwt beam="1">  1        4 0.26163167E-03 0.20000356E+02</pdfrwt>
<pdfrwt beam="2">  1       -4 0.90468718E-02 0.20000356E+02</pdfrwt>
<totfact> 0.11099100E+06</totfact>
</mgrwt>
</event>
<event>
 4    1  0.1154861E-006  0.2043148E+02  0.7818608E-02  0.1736881E+00
          4   -1    0    0  501    0  0.00000000000E+00  0.00000000000E+00  0.37472178063E+01  0.40072485932E+01  0.14200000000E+01 0. -1.
         -4   -1    0    0    0  501 -0.00000000000E+00 -0.00000000000E+00 -0.26636874443E+02  0.26674697376E+02  0.14200000000E+01 0.  1.
        -11    1    1    2    0    0  0.27071478933E+01  0.98482197768E+01 -0.11764355699E+02  0.15579350043E+02  0.51100000000E-03 0. -1.
         11    1    1    2    0    0 -0.27071478933E+01 -0.98482197768E+01 -0.11125300937E+02  0.15102595926E+02  0.51100000000E-03 0.  1.
<mgrwt>
<rscale>  0 0.20431481E+02</rscale>
<asrwt>0</asrwt>
<pdfrwt beam="1">  1        4 0.59940689E-03 0.20431481E+02</pdfrwt>
<pdfrwt beam="2">  1       -4 0.41208924E-02 0.20431481E+02</pdfrwt>
<totfact> 0.11890557E+06</totfact>
</mgrwt>
</event>
<event>
 5    1  0.1156161E-006  0.2000333E+02  0.7818608E-02  0.1745262E+00
          4   -1    0    0  501    0  0.00000000000E+00  0.00000000000E+00  0.30880777806E+02  0.30913408707E+02  0.14200000000E+01 0. -1.
         -4   -1    0    0    0  501 -0.00000000000E+00 -0.00000000000E+00 -0.30476248556E+01  0.33622042264E+01  0.14200000000E+01 0.  1.
       1023    2    1    2    0    0  0.00000000000E+00  0.00000000000E+00  0.27833152950E+02  0.34275612934E+02  0.20003330693E+02 0.  0.
        -11    1    3    3    0    0 -0.67083998150E+01 -0.74160907966E+01  0.13608725395E+02  0.16887819217E+02  0.51100000000E-03 0.  1.
         11    1    3    3    0    0  0.67083998150E+01  0.74160907966E+01  0.14224427556E+02  0.17387793717E+02  0.51100000000E-03 0. -1.
<mgrwt>
<rscale>  0 0.20003331E+02</rscale>
<asrwt>0</asrwt>
<pdfrwt beam="1">  1        4 0.47775975E-02 0.20003331E+02</pdfrwt>
<pdfrwt beam="2">  1       -4 0.49557383E-03 0.20003331E+02</pdfrwt>
<totfact> 0.12233696E+06</totfact>
</mgrwt>
</event>
<event>
 5    1  0.1154861E-006  0.2000441E+02  0.7818608E-02  0.1745240E+00
         -4   -1    0    0    0  501 -0.00000000000E+00  0.00000000000E+00  0.35086802131E+01  0.37851336618E+01  0.14200000000E+01 0. -1.
          4   -1    0    0  501    0  0.00000000000E+00 -0.00000000000E+00 -0.27136873600E+02  0.27174000603E+02  0.14200000000E+01 0.  1.
       1023    2    1    2    0    0  0.00000000000E+00  0.00000000000E+00 -0.23628193387E+02  0.30959134265E+02  0.20004411306E+02 0.  0.
        -11    1    3    3    0    0  0.84282671884E+01 -0.53838972991E+01 -0.11584132622E+02  0.15304057200E+02  0.51100000000E-03 0.  1.
         11    1    3    3    0    0 -0.84282671884E+01  0.53838972991E+01 -0.12044060764E+02  0.15655077064E+02  0.51100000000E-03 0. -1.
<mgrwt>
<rscale>  0 0.20004411E+02</rscale>
<asrwt>0</asrwt>
<pdfrwt beam="2">  1        4 0.41990251E-02 0.20004411E+02</pdfrwt>
<pdfrwt beam="1">  1       -4 0.56391855E-03 0.20004411E+02</pdfrwt>
<totfact> 0.12400388E+06</totfact>
</mgrwt>
</event>
<event>
 5    1  0.1154861E-006  0.2000034E+02  0.7818608E-02  0.1745321E+00
          4   -1    0    0  501    0  0.00000000000E+00  0.00000000000E+00  0.63189817987E+01  0.64765678390E+01  0.14200000000E+01 0.  1.
         -4   -1    0    0    0  501 -0.00000000000E+00 -0.00000000000E+00 -0.15440395316E+02  0.15505554086E+02  0.14200000000E+01 0. -1.
       1023    2    1    2    0    0  0.00000000000E+00  0.00000000000E+00 -0.91214135175E+01  0.21982121925E+02  0.20000337492E+02 0.  0.
        -11    1    3    3    0    0 -0.96527120798E+01  0.26131241070E+01 -0.45720539328E+01  0.10995769437E+02  0.51100000000E-03 0. -1.
         11    1    3    3    0    0  0.96527120798E+01 -0.26131241070E+01 -0.45493595847E+01  0.10986352488E+02  0.51100000000E-03 0.  1.
<mgrwt>
<rscale>  0 0.20000337E+02</rscale>
<asrwt>0</asrwt>
<pdfrwt beam="1">  1        4 0.98928527E-03 0.20000337E+02</pdfrwt>
<pdfrwt beam="2">  1       -4 0.23925796E-02 0.20000337E+02</pdfrwt>
<totfact> 0.12896818E+06</totfact>
</mgrwt>
</event>
<event>
 5    1  0.1182832E-006  0.2000104E+02  0.7818608E-02  0.1745307E+00
          4   -1    0    0  501    0  0.00000000000E+00  0.00000000000E+00  0.40727873598E+01  0.43132350826E+01  0.14200000000E+01 0.  1.
         -4   -1    0    0    0  501 -0.00000000000E+00 -0.00000000000E+00 -0.23589267369E+02  0.23631968497E+02  0.14200000000E+01 0. -1.
       1023    2    1    2    0    0  0.00000000000E+00  0.00000000000E+00 -0.19516480010E+02  0.27945203579E+02  0.20001035251E+02 0.  0.
        -11    1    3    3    0    0  0.71904433833E+00 -0.99742459083E+01 -0.98812109400E+01  0.14058482710E+02  0.51100000000E-03 0. -1.
         11    1    3    3    0    0 -0.71904433833E+00  0.99742459083E+01 -0.96352690696E+01  0.13886720869E+02  0.51100000000E-03 0.  1.
<mgrwt>
<rscale>  0 0.20001035E+02</rscale>
<asrwt>0</asrwt>
<pdfrwt beam="1">  1        4 0.64836337E-03 0.20001035E+02</pdfrwt>
<pdfrwt beam="2">  1       -4 0.36508986E-02 0.20001035E+02</pdfrwt>
<totfact> 0.12563165E+06</totfact>
</mgrwt>
</event>
<event>
 5    1  0.1188417E-006  0.2000313E+02  0.7818608E-02  0.1745266E+00
          4   -1    0    0  501    0  0.00000000000E+00  0.00000000000E+00  0.60477678242E+01  0.62122375724E+01  0.14200000000E+01 0.  1.
         -4   -1    0    0    0  501 -0.00000000000E+00 -0.00000000000E+00 -0.16122212903E+02  0.16184626931E+02  0.14200000000E+01 0. -1.
       1023    2    1    2    0    0  0.00000000000E+00  0.00000000000E+00 -0.10074445079E+02  0.22396864503E+02  0.20003127154E+02 0.  0.
        -11    1    3    3    0    0  0.99401296864E+01 -0.10955209272E+01 -0.48604374731E+01  0.11118911681E+02  0.51100000000E-03 0.  1.
         11    1    3    3    0    0 -0.99401296864E+01  0.10955209272E+01 -0.52140076060E+01  0.11277952822E+02  0.51100000000E-03 0. -1.
<mgrwt>
<rscale>  0 0.20003127E+02</rscale>
<asrwt>0</asrwt>
<pdfrwt beam="1">  1        4 0.94787842E-03 0.20003127E+02</pdfrwt>
<pdfrwt beam="2">  1       -4 0.24977930E-02 0.20003127E+02</pdfrwt>
<totfact> 0.12869148E+06</totfact>
</mgrwt>
</event>
<event>
 5    1  0.1172022E-006  0.2000125E+02  0.7818608E-02  0.1745303E+00
         -4   -1    0    0    0  501 -0.00000000000E+00  0.00000000000E+00  0.27464137253E+01  0.30917937109E+01  0.14200000000E+01 0. -1.
          4   -1    0    0  501    0  0.00000000000E+00 -0.00000000000E+00 -0.33900260902E+02  0.33929988052E+02  0.14200000000E+01 0.  1.
       1023    2    1    2    0    0  0.00000000000E+00  0.00000000000E+00 -0.31153847176E+02  0.37021781763E+02  0.20001253236E+02 0.  0.
        -11    1    3    3    0    0 -0.74178347080E+01  0.67066687093E+01 -0.15751107503E+02  0.18657466729E+02  0.51100000000E-03 0. -1.
         11    1    3    3    0    0  0.74178347080E+01 -0.67066687093E+01 -0.15402739673E+02  0.18364315033E+02  0.51100000000E-03 0.  1.
<mgrwt>
<rscale>  0 0.20001253E+02</rscale>
<asrwt>0</asrwt>
<pdfrwt beam="2">  1        4 0.52442789E-02 0.20001253E+02</pdfrwt>
<pdfrwt beam="1">  1       -4 0.45137961E-03 0.20001253E+02</pdfrwt>
<totfact> 0.12102012E+06</totfact>
</mgrwt>
</event>
<event>
 5    1  0.1154861E-006  0.2000876E+02  0.7818608E-02  0.1745154E+00
          4   -1    0    0  501    0  0.00000000000E+00  0.00000000000E+00  0.51725994106E+02  0.51745481602E+02  0.14200000000E+01 0.  1.
         -4   -1    0    0    0  501 -0.00000000000E+00 -0.00000000000E+00 -0.16518270590E+01  0.21782866278E+01  0.14200000000E+01 0. -1.
       1023    2    1    2    0    0  0.00000000000E+00  0.00000000000E+00  0.50074167047E+02  0.53923768230E+02  0.20008762447E+02 0.  0.
        -11    1    3    3    0    0 -0.89967457381E+01 -0.43662158806E+01  0.25810547976E+02  0.27680131179E+02  0.51100000000E-03 0.  1.
         11    1    3    3    0    0  0.89967457381E+01  0.43662158806E+01  0.24263619070E+02  0.26243637051E+02  0.51100000000E-03 0. -1.
<mgrwt>
<rscale>  0 0.20008762E+02</rscale>
<asrwt>0</asrwt>
<pdfrwt beam="1">  1        4 0.79998413E-02 0.20008762E+02</pdfrwt>
<pdfrwt beam="2">  1       -4 0.29612316E-03 0.20008762E+02</pdfrwt>
<totfact> 0.11348263E+06</totfact>
</mgrwt>
</event>
<event>
 5    1  0.1154861E-006  0.2000241E+02  0.7818608E-02  0.1745280E+00
         -4   -1    0    0    0  501 -0.00000000000E+00  0.00000000000E+00  0.53062419886E+02  0.53081416750E+02  0.14200000000E+01 0.  1.
          4   -1    0    0  501    0  0.00000000000E+00 -0.00000000000E+00 -0.15954421628E+01  0.21358454286E+01  0.14200000000E+01 0. -1.
       1023    2    1    2    0    0  0.00000000000E+00  0.00000000000E+00  0.51466977723E+02  0.55217262179E+02  0.20002406018E+02 0.  0.
        -11    1    3    3    0    0 -0.46660948014E+01  0.88448950946E+01  0.25348481994E+02  0.27249773387E+02  0.51100000000E-03 0.  1.
         11    1    3    3    0    0  0.46660948014E+01 -0.88448950946E+01  0.26118495729E+02  0.27967488792E+02  0.51100000000E-03 0. -1.
<mgrwt>
<rscale>  0 0.20002406E+02</rscale>
<asrwt>0</asrwt>
<pdfrwt beam="2">  1        4 0.28848341E-03 0.20002406E+02</pdfrwt>
<pdfrwt beam="1">  1       -4 0.82064802E-02 0.20002406E+02</pdfrwt>
<totfact> 0.11303466E+06</totfact>
</mgrwt>
</event>
<event>
 4    1  0.1154861E-006  0.2003431E+02  0.7818608E-02  0.1744647E+00
          4   -1    0    0  501    0  0.00000000000E+00  0.00000000000E+00  0.65576986136E+01  0.67096804027E+01  0.14200000000E+01 0. -1.
         -4   -1    0    0    0  501 -0.00000000000E+00 -0.00000000000E+00 -0.14940302748E+02  0.15007632931E+02  0.14200000000E+01 0.  1.
        -11    1    1    2    0    0  0.57343326320E+01  0.82078842075E+01 -0.45191622371E+01  0.10985206484E+02  0.51100000000E-03 0.  1.
         11    1    1    2    0    0 -0.57343326320E+01 -0.82078842075E+01 -0.38634418975E+01  0.10732106851E+02  0.51100000000E-03 0. -1.
<mgrwt>
<rscale>  0 0.20034312E+02</rscale>
<asrwt>0</asrwt>
<pdfrwt beam="1">  1        4 0.10257469E-02 0.20034312E+02</pdfrwt>
<pdfrwt beam="2">  1       -4 0.23153783E-02 0.20034312E+02</pdfrwt>
<totfact> 0.12867594E+06</totfact>
</mgrwt>
</event>
<event>
 5    1  0.1154861E-006  0.2000096E+02  0.7818608E-02  0.1745309E+00
         -4   -1    0    0    0  501 -0.00000000000E+00  0.00000000000E+00  0.13302489113E+01  0.19457549090E+01  0.14200000000E+01 0. -1.
          4   -1    0    0  501    0  0.00000000000E+00 -0.00000000000E+00 -0.60430454941E+02  0.60447136279E+02  0.14200000000E+01 0.  1.
       1023    2    1    2    0    0  0.00000000000E+00  0.00000000000E+00 -0.59100206030E+02  0.62392891188E+02  0.20000962929E+02 0.  0.
        -11    1    3    3    0    0  0.13698998123E+01 -0.99059788173E+01 -0.29761388308E+02  0.31396580643E+02  0.51100000000E-03 0.  1.
         11    1    3    3    0    0 -0.13698998123E+01  0.99059788173E+01 -0.29338817722E+02  0.30996310545E+02  0.51100000000E-03 0. -1.
<mgrwt>
<rscale>  0 0.20000963E+02</rscale>
<asrwt>0</asrwt>
<pdfrwt beam="2">  1        4 0.93456211E-02 0.20000963E+02</pdfrwt>
<pdfrwt beam="1">  1       -4 0.25328352E-03 0.20000963E+02</pdfrwt>
<totfact> 0.11026863E+06</totfact>
</mgrwt>
</event>
<event>
 5    1  0.1156901E-006  0.2000214E+02  0.7818608E-02  0.1745286E+00
          4   -1    0    0  501    0  0.00000000000E+00  0.00000000000E+00  0.33725993497E+01  0.36593478071E+01  0.14200000000E+01 0. -1.
         -4   -1    0    0    0  501 -0.00000000000E+00 -0.00000000000E+00 -0.28142334802E+02  0.28178137059E+02  0.14200000000E+01 0.  1.
       1023    2    1    2    0    0  0.00000000000E+00  0.00000000000E+00 -0.24769735452E+02  0.31837484866E+02  0.20002141091E+02 0.  0.
        -11    1    3    3    0    0 -0.94708162576E+01  0.32106228441E+01 -0.12177627156E+02  0.15757508149E+02  0.51100000000E-03 0.  1.
         11    1    3    3    0    0  0.94708162576E+01 -0.32106228441E+01 -0.12592108296E+02  0.16079976717E+02  0.51100000000E-03 0. -1.
<mgrwt>
<rscale>  0 0.20002141E+02</rscale>
<asrwt>0</asrwt>
<pdfrwt beam="1">  1        4 0.54367305E-03 0.20002141E+02</pdfrwt>
<pdfrwt beam="2">  1       -4 0.43544014E-02 0.20002141E+02</pdfrwt>
<totfact> 0.12358086E+06</totfact>
</mgrwt>
</event>
<event>
 5    1  0.1154861E-006  0.2000039E+02  0.7818608E-02  0.1745320E+00
         -4   -1    0    0    0  501 -0.00000000000E+00  0.00000000000E+00  0.49385372082E+01  0.51386330631E+01  0.14200000000E+01 0. -1.
          4   -1    0    0  501    0  0.00000000000E+00 -0.00000000000E+00 -0.19621361390E+02  0.19672677062E+02  0.14200000000E+01 0.  1.
       1023    2    1    2    0    0  0.00000000000E+00  0.00000000000E+00 -0.14682824181E+02  0.24811310125E+02  0.20000394601E+02 0.  0.
        -11    1    3    3    0    0 -0.28715456750E+01 -0.95788744699E+01 -0.74130538299E+01  0.12448051174E+02  0.51100000000E-03 0.  1.
         11    1    3    3    0    0  0.28715456750E+01  0.95788744699E+01 -0.72697703513E+01  0.12363258951E+02  0.51100000000E-03 0. -1.
<mgrwt>
<rscale>  0 0.20000395E+02</rscale>
<asrwt>0</asrwt>
<pdfrwt beam="2">  1        4 0.30380103E-02 0.20000395E+02</pdfrwt>
<pdfrwt beam="1">  1       -4 0.77911431E-03 0.20000395E+02</pdfrwt>
<totfact> 0.12735630E+06</totfact>
</mgrwt>
</event>
<event>
 5    1  0.1154861E-006  0.2000071E+02  0.7818608E-02  0.1745314E+00
          4   -1    0    0  501    0  0.00000000000E+00  0.00000000000E+00  0.92287529170E+02  0.92298453077E+02  0.14200000000E+01 0.  1.
         -4   -1    0    0    0  501 -0.00000000000E+00 -0.00000000000E+00 -0.60266554765E+00  0.15425970836E+01  0.14200000000E+01 0. -1.
       1023    2    1    2    0    0  0.00000000000E+00  0.00000000000E+00  0.91684863623E+02  0.93841050160E+02  0.20000711930E+02 0.  0.
        -11    1    3    3    0    0 -0.93806205158E+01  0.34655796973E+01  0.45978031490E+02  0.47053009084E+02  0.51100000000E-03 0. -1.
         11    1    3    3    0    0  0.93806205158E+01 -0.34655796973E+01  0.45706832132E+02  0.46788041076E+02  0.51100000000E-03 0.  1.
<mgrwt>
<rscale>  0 0.20000712E+02</rscale>
<asrwt>0</asrwt>
<pdfrwt beam="1">  1        4 0.14271227E-01 0.20000712E+02</pdfrwt>
<pdfrwt beam="2">  1       -4 0.16586047E-03 0.20000712E+02</pdfrwt>
<totfact> 0.99795362E+05</totfact>
</mgrwt>
</event>
<event>
 5    1  0.1154861E-006  0.2000487E+02  0.7818608E-02  0.1745231E+00
          4   -1    0    0  501    0  0.00000000000E+00  0.00000000000E+00  0.38580530636E+02  0.38606654144E+02  0.14200000000E+01 0.  1.
         -4   -1    0    0    0  501 -0.00000000000E+00 -0.00000000000E+00 -0.23697366809E+01  0.27626168639E+01  0.14200000000E+01 0. -1.
       1023    2    1    2    0    0  0.00000000000E+00  0.00000000000E+00  0.36210793956E+02  0.41369271008E+02  0.20004874027E+02 0.  0.
        -11    1    3    3    0    0 -0.90281591615E+01  0.43011265843E+01  0.17684638562E+02  0.20316342906E+02  0.51100000000E-03 0. -1.
         11    1    3    3    0    0  0.90281591615E+01 -0.43011265843E+01  0.18526155394E+02  0.21052928102E+02  0.51100000000E-03 0.  1.
<mgrwt>
<rscale>  0 0.20004874E+02</rscale>
<asrwt>0</asrwt>
<pdfrwt beam="1">  1        4 0.59676969E-02 0.20004874E+02</pdfrwt>
<pdfrwt beam="2">  1       -4 0.39680595E-03 0.20004874E+02</pdfrwt>
<totfact> 0.11893486E+06</totfact>
</mgrwt>
</event>
<event>
 5    1  0.1167307E-006  0.2000088E+02  0.7818608E-02  0.1745311E+00
         -4   -1    0    0    0  501 -0.00000000000E+00  0.00000000000E+00  0.16669076501E+02  0.16729450421E+02  0.14200000000E+01 0. -1.
          4   -1    0    0  501    0  0.00000000000E+00 -0.00000000000E+00 -0.58432554807E+01  0.60133214293E+01  0.14200000000E+01 0.  1.
       1023    2    1    2    0    0  0.00000000000E+00  0.00000000000E+00  0.10825821020E+02  0.22742771850E+02  0.20000881748E+02 0.  0.
        -11    1    3    3    0    0  0.14124512244E+01  0.99001320367E+01  0.54520468846E+01  0.11390015290E+02  0.51100000000E-03 0.  1.
         11    1    3    3    0    0 -0.14124512244E+01 -0.99001320367E+01  0.53737741355E+01  0.11352756561E+02  0.51100000000E-03 0. -1.
<mgrwt>
<rscale>  0 0.20000882E+02</rscale>
<asrwt>0</asrwt>
<pdfrwt beam="2">  1        4 0.91668854E-03 0.20000882E+02</pdfrwt>
<pdfrwt beam="1">  1       -4 0.25821994E-02 0.20000882E+02</pdfrwt>
<totfact> 0.12852171E+06</totfact>
</mgrwt>
</event>
<event>
 5    1  0.1154946E-006  0.2000081E+02  0.7818608E-02  0.1745312E+00
          4   -1    0    0  501    0  0.00000000000E+00  0.00000000000E+00  0.35472559395E+02  0.35500969987E+02  0.14200000000E+01 0.  1.
         -4   -1    0    0    0  501 -0.00000000000E+00 -0.00000000000E+00 -0.26089977638E+01  0.29703988506E+01  0.14200000000E+01 0. -1.
       1023    2    1    2    0    0  0.00000000000E+00  0.00000000000E+00  0.32863561631E+02  0.38471368838E+02  0.20000813413E+02 0.  0.
        -11    1    3    3    0    0 -0.99590815361E+00 -0.99505241796E+01  0.16320126685E+02  0.19140305634E+02  0.51100000000E-03 0. -1.
         11    1    3    3    0    0  0.99590815361E+00  0.99505241796E+01  0.16543434946E+02  0.19331063204E+02  0.51100000000E-03 0.  1.
<mgrwt>
<rscale>  0 0.20000813E+02</rscale>
<asrwt>0</asrwt>
<pdfrwt beam="1">  1        4 0.54873022E-02 0.20000813E+02</pdfrwt>
<pdfrwt beam="2">  1       -4 0.43136980E-03 0.20000813E+02</pdfrwt>
<totfact> 0.12033371E+06</totfact>
</mgrwt>
</event>
<event>
 5    1  0.1154861E-006  0.2000053E+02  0.7818608E-02  0.1745318E+00
         -4   -1    0    0    0  501 -0.00000000000E+00  0.00000000000E+00  0.38982606301E+01  0.41488354921E+01  0.14200000000E+01 0. -1.
          4   -1    0    0  501    0  0.00000000000E+00 -0.00000000000E+00 -0.24583300038E+02  0.24624277467E+02  0.14200000000E+01 0.  1.
       1023    2    1    2    0    0  0.00000000000E+00  0.00000000000E+00 -0.20685039408E+02  0.28773112959E+02  0.20000529344E+02 0.  0.
        -11    1    3    3    0    0  0.35463969798E+01  0.93502042935E+01 -0.10407518823E+02  0.14433284456E+02  0.51100000000E-03 0. -1.
         11    1    3    3    0    0 -0.35463969798E+01 -0.93502042935E+01 -0.10277520585E+02  0.14339828504E+02  0.51100000000E-03 0.  1.
<mgrwt>
<rscale>  0 0.20000529E+02</rscale>
<asrwt>0</asrwt>
<pdfrwt beam="2">  1        4 0.38044732E-02 0.20000529E+02</pdfrwt>
<pdfrwt beam="1">  1       -4 0.62215952E-03 0.20000529E+02</pdfrwt>
<totfact> 0.12519650E+06</totfact>
</mgrwt>
</event>
<event>
 5    1  0.1154861E-006  0.2000027E+02  0.7818608E-02  0.1745323E+00
          4   -1    0    0  501    0  0.00000000000E+00  0.00000000000E+00  0.53920068723E+02  0.53938763529E+02  0.14200000000E+01 0. -1.
         -4   -1    0    0    0  501 -0.00000000000E+00 -0.00000000000E+00 -0.15609572481E+01  0.21102103047E+01  0.14200000000E+01 0.  1.
       1023    2    1    2    0    0  0.00000000000E+00  0.00000000000E+00  0.52359111475E+02  0.56048973834E+02  0.20000272834E+02 0.  0.
        -11    1    3    3    0    0 -0.98830571520E+01 -0.15251012594E+01  0.26054995772E+02  0.27908127086E+02  0.51100000000E-03 0.  1.
         11    1    3    3    0    0  0.98830571520E+01  0.15251012594E+01  0.26304115703E+02  0.28140846748E+02  0.51100000000E-03 0. -1.
<mgrwt>
<rscale>  0 0.20000273E+02</rscale>
<asrwt>0</asrwt>
<pdfrwt beam="1">  1        4 0.83390829E-02 0.20000273E+02</pdfrwt>
<pdfrwt beam="2">  1       -4 0.28383559E-03 0.20000273E+02</pdfrwt>
<totfact> 0.11272736E+06</totfact>
</mgrwt>
</event>
<event>
 5    1  0.1154861E-006  0.2000136E+02  0.7818608E-02  0.1745301E+00
         -4   -1    0    0    0  501 -0.00000000000E+00  0.00000000000E+00  0.58447294752E+00  0.15355808759E+01  0.14200000000E+01 0. -1.
          4   -1    0    0  501    0  0.00000000000E+00 -0.00000000000E+00 -0.93391105332E+02  0.93401900169E+02  0.14200000000E+01 0.  1.
       1023    2    1    2    0    0  0.00000000000E+00  0.00000000000E+00 -0.92806632385E+02  0.94937481045E+02  0.20001357268E+02 0.  0.
        -11    1    3    3    0    0  0.50924671598E+01  0.86067477769E+01 -0.46712528035E+02  0.47771012181E+02  0.51100000000E-03 0. -1.
         11    1    3    3    0    0 -0.50924671598E+01 -0.86067477769E+01 -0.46094104350E+02  0.47166468864E+02  0.51100000000E-03 0.  1.
<mgrwt>
<rscale>  0 0.20001357E+02</rscale>
<asrwt>0</asrwt>
<pdfrwt beam="2">  1        4 0.14441848E-01 0.20001357E+02</pdfrwt>
<pdfrwt beam="1">  1       -4 0.16391151E-03 0.20001357E+02</pdfrwt>
<totfact> 0.99464926E+05</totfact>
</mgrwt>
</event>
<event>
 5    1  0.1154861E-006  0.2000273E+02  0.7818608E-02  0.1745274E+00
          4   -1    0    0  501    0  0.00000000000E+00  0.00000000000E+00  0.10485499988E+02  0.10581214958E+02  0.14200000000E+01 0.  1.
         -4   -1    0    0    0  501 -0.00000000000E+00 -0.00000000000E+00 -0.93466562337E+01  0.94539083321E+01  0.14200000000E+01 0. -1.
       1023    2    1    2    0    0  0.00000000000E+00  0.00000000000E+00  0.11388437542E+01  0.20035123290E+02  0.20002729818E+02 0.  0.
        -11    1    3    3    0    0  0.83791308393E+01 -0.54604829251E+01  0.54504352475E+00  0.10016175922E+02  0.51100000000E-03 0. -1.
         11    1    3    3    0    0 -0.83791308393E+01  0.54604829251E+01  0.59380022941E+00  0.10018947368E+02  0.51100000000E-03 0.  1.
<mgrwt>
<rscale>  0 0.20002730E+02</rscale>
<asrwt>0</asrwt>
<pdfrwt beam="1">  1        4 0.16287667E-02 0.20002730E+02</pdfrwt>
<pdfrwt beam="2">  1       -4 0.14535600E-02 0.20002730E+02</pdfrwt>
<totfact> 0.13008335E+06</totfact>
</mgrwt>
</event>
<event>
 5    1  0.1154861E-006  0.2000871E+02  0.7818608E-02  0.1745155E+00
          4   -1    0    0  501    0  0.00000000000E+00  0.00000000000E+00  0.61066290177E+02  0.61082797873E+02  0.14200000000E+01 0. -1.
         -4   -1    0    0    0  501 -0.00000000000E+00 -0.00000000000E+00 -0.13114730001E+01  0.19329670018E+01  0.14200000000E+01 0.  1.
       1023    2    1    2    0    0  0.00000000000E+00  0.00000000000E+00  0.59754817177E+02  0.63015764874E+02  0.20008709276E+02 0.  0.
        -11    1    3    3    0    0  0.72584609753E+01 -0.68832512835E+01  0.29402822704E+02  0.31057855483E+02  0.51100000000E-03 0.  1.
         11    1    3    3    0    0 -0.72584609753E+01  0.68832512835E+01  0.30351994473E+02  0.31957909392E+02  0.51100000000E-03 0. -1.
<mgrwt>
<rscale>  0 0.20008709E+02</rscale>
<asrwt>0</asrwt>
<pdfrwt beam="1">  1        4 0.94438904E-02 0.20008709E+02</pdfrwt>
<pdfrwt beam="2">  1       -4 0.25084214E-03 0.20008709E+02</pdfrwt>
<totfact> 0.10994941E+06</totfact>
</mgrwt>
</event>
<event>
 5    1  0.1182062E-006  0.2000057E+02  0.7818608E-02  0.1745317E+00
         -4   -1    0    0    0  501 -0.00000000000E+00  0.00000000000E+00  0.10633851048E+02  0.10728242546E+02  0.14200000000E+01 0.  1.
          4   -1    0    0  501    0  0.00000000000E+00 -0.00000000000E+00 -0.92138886249E+01  0.93226682657E+01  0.14200000000E+01 0. -1.
       1023    2    1    2    0    0  0.00000000000E+00  0.00000000000E+00  0.14199624235E+01  0.20050910811E+02  0.20000568269E+02 0.  0.
        -11    1    3    3    0    0  0.30292430257E+01 -0.95304361184E+01  0.72252648440E+00  0.10026343835E+02  0.51100000000E-03 0.  1.
         11    1    3    3    0    0 -0.30292430257E+01  0.95304361184E+01  0.69743593906E+00  0.10024566976E+02  0.51100000000E-03 0. -1.
<mgrwt>
<rscale>  0 0.20000568E+02</rscale>
<asrwt>0</asrwt>
<pdfrwt beam="2">  1        4 0.14331499E-02 0.20000568E+02</pdfrwt>
<pdfrwt beam="1">  1       -4 0.16516056E-02 0.20000568E+02</pdfrwt>
<totfact> 0.13010269E+06</totfact>
</mgrwt>
</event>
<event>
 5    1  0.1154861E-006  0.2000157E+02  0.7818608E-02  0.1745297E+00
          4   -1    0    0  501    0  0.00000000000E+00  0.00000000000E+00  0.41092637766E+02  0.41117165254E+02  0.14200000000E+01 0. -1.
         -4   -1    0    0    0  501 -0.00000000000E+00 -0.00000000000E+00 -0.21992988964E+01  0.26178838087E+01  0.14200000000E+01 0.  1.
       1023    2    1    2    0    0  0.00000000000E+00  0.00000000000E+00  0.38893338869E+02  0.43735049063E+02  0.20001567642E+02 0.  0.
        -11    1    3    3    0    0  0.54494186924E+00 -0.99853468109E+01  0.19211531167E+02  0.21658417362E+02  0.51100000000E-03 0. -1.
         11    1    3    3    0    0 -0.54494186924E+00  0.99853468109E+01  0.19681807702E+02  0.22076631701E+02  0.51100000000E-03 0.  1.
<mgrwt>
<rscale>  0 0.20001568E+02</rscale>
<asrwt>0</asrwt>
<pdfrwt beam="1">  1        4 0.63560295E-02 0.20001568E+02</pdfrwt>
<pdfrwt beam="2">  1       -4 0.37243927E-03 0.20001568E+02</pdfrwt>
<totfact> 0.11790241E+06</totfact>
</mgrwt>
</event>
<event>
 5    1  0.1154861E-006  0.2000038E+02  0.7818608E-02  0.1745320E+00
          4   -1    0    0  501    0  0.00000000000E+00  0.00000000000E+00  0.26223831147E+02  0.26262248952E+02  0.14200000000E+01 0.  1.
         -4   -1    0    0    0  501 -0.00000000000E+00 -0.00000000000E+00 -0.36385282405E+01  0.39058018071E+01  0.14200000000E+01 0. -1.
       1023    2    1    2    0    0  0.00000000000E+00  0.00000000000E+00  0.22585302906E+02  0.30168050759E+02  0.20000384477E+02 0.  0.
        -11    1    3    3    0    0 -0.52324480630E+01  0.85220117394E+01  0.11331040333E+02  0.15112765204E+02  0.51100000000E-03 0.  1.
         11    1    3    3    0    0  0.52324480630E+01 -0.85220117394E+01  0.11254262573E+02  0.15055285555E+02  0.51100000000E-03 0. -1.
<mgrwt>
<rscale>  0 0.20000384E+02</rscale>
<asrwt>0</asrwt>
<pdfrwt beam="1">  1        4 0.40579503E-02 0.20000384E+02</pdfrwt>
<pdfrwt beam="2">  1       -4 0.58328829E-03 0.20000384E+02</pdfrwt>
<totfact> 0.12446486E+06</totfact>
</mgrwt>
</event>
<event>
 5    1  0.1154861E-006  0.2000437E+02  0.7818608E-02  0.1745241E+00
          4   -1    0    0  501    0  0.00000000000E+00  0.00000000000E+00  0.83486604133E+01  0.84685613121E+01  0.14200000000E+01 0.  1.
         -4   -1    0    0    0  501 -0.00000000000E+00 -0.00000000000E+00 -0.11734764332E+02  0.11820367758E+02  0.14200000000E+01 0. -1.
       1023    2    1    2    0    0  0.00000000000E+00  0.00000000000E+00 -0.33861039185E+01  0.20288929070E+02  0.20004373098E+02 0.  0.
        -11    1    3    3    0    0  0.99387741544E+01 -0.11243193045E+01 -0.17135861710E+01  0.10147891575E+02  0.51100000000E-03 0.  1.
         11    1    3    3    0    0 -0.99387741544E+01  0.11243193045E+01 -0.16725177475E+01  0.10141037495E+02  0.51100000000E-03 0. -1.
<mgrwt>
<rscale>  0 0.20004373E+02</rscale>
<asrwt>0</asrwt>
<pdfrwt beam="1">  1        4 0.13002173E-02 0.20004373E+02</pdfrwt>
<pdfrwt beam="2">  1       -4 0.18211564E-02 0.20004373E+02</pdfrwt>
<totfact> 0.12991048E+06</totfact>
</mgrwt>
</event>
<event>
 5    1  0.1154861E-006  0.2000086E+02  0.7818608E-02  0.1745311E+00
          4   -1    0    0  501    0  0.00000000000E+00  0.00000000000E+00  0.18265576939E+01  0.23135930950E+01  0.14200000000E+01 0. -1.
         -4   -1    0    0    0  501 -0.00000000000E+00 -0.00000000000E+00 -0.47812740788E+02  0.47833822570E+02  0.14200000000E+01 0.  1.
       1023    2    1    2    0    0  0.00000000000E+00  0.00000000000E+00 -0.45986183094E+02  0.50147415665E+02  0.20000856539E+02 0.  0.
        -11    1    3    3    0    0  0.53110851518E+01  0.84732886240E+01 -0.22828302707E+02  0.24922593171E+02  0.51100000000E-03 0. -1.
         11    1    3    3    0    0 -0.53110851518E+01 -0.84732886240E+01 -0.23157880386E+02  0.25224822494E+02  0.51100000000E-03 0.  1.
<mgrwt>
<rscale>  0 0.20000857E+02</rscale>
<asrwt>0</asrwt>
<pdfrwt beam="1">  1        4 0.32009485E-03 0.20000857E+02</pdfrwt>
<pdfrwt beam="2">  1       -4 0.73948914E-02 0.20000857E+02</pdfrwt>
<totfact> 0.11513027E+06</totfact>
</mgrwt>
</event>
<event>
 5    1  0.1154861E-006  0.2000053E+02  0.7818608E-02  0.1745317E+00
         -4   -1    0    0    0  501 -0.00000000000E+00  0.00000000000E+00  0.24478582645E+01  0.28299134409E+01  0.14200000000E+01 0. -1.
          4   -1    0    0  501    0  0.00000000000E+00 -0.00000000000E+00 -0.37500331737E+02  0.37527207202E+02  0.14200000000E+01 0.  1.
       1023    2    1    2    0    0  0.00000000000E+00  0.00000000000E+00 -0.35052473473E+02  0.40357120643E+02  0.20000532244E+02 0.  0.
        -11    1    3    3    0    0  0.49812592767E+01  0.86711133774E+01 -0.17395919412E+02  0.20065372252E+02  0.51100000000E-03 0. -1.
         11    1    3    3    0    0 -0.49812592767E+01 -0.86711133774E+01 -0.17656554061E+02  0.20291748391E+02  0.51100000000E-03 0.  1.
<mgrwt>
<rscale>  0 0.20000532E+02</rscale>
<asrwt>0</asrwt>
<pdfrwt beam="2">  1        4 0.58007376E-02 0.20000532E+02</pdfrwt>
<pdfrwt beam="1">  1       -4 0.40804981E-03 0.20000532E+02</pdfrwt>
<totfact> 0.11945377E+06</totfact>
</mgrwt>
</event>
<event>
 5    1  0.1154861E-006  0.2000404E+02  0.7818608E-02  0.1745248E+00
         -4   -1    0    0    0  501 -0.00000000000E+00  0.00000000000E+00  0.13881756810E+02  0.13954195502E+02  0.14200000000E+01 0. -1.
          4   -1    0    0  501    0  0.00000000000E+00 -0.00000000000E+00 -0.70443838940E+01  0.71860799081E+01  0.14200000000E+01 0.  1.
       1023    2    1    2    0    0  0.00000000000E+00  0.00000000000E+00  0.68373729156E+01  0.21140275411E+02  0.20004038993E+02 0.  0.
        -11    1    3    3    0    0  0.10000968980E+02  0.10937524016E+00  0.33181499775E+01  0.10537621317E+02  0.51100000000E-03 0.  1.
         11    1    3    3    0    0 -0.10000968980E+02 -0.10937524016E+00  0.35192229380E+01  0.10602654094E+02  0.51100000000E-03 0. -1.
<mgrwt>
<rscale>  0 0.20004039E+02</rscale>
<asrwt>0</asrwt>
<pdfrwt beam="2">  1        4 0.11002233E-02 0.20004039E+02</pdfrwt>
<pdfrwt beam="1">  1       -4 0.21521268E-02 0.20004039E+02</pdfrwt>
<totfact> 0.12941148E+06</totfact>
</mgrwt>
</event>
<event>
 5    1  0.1154861E-006  0.2000062E+02  0.7818608E-02  0.1745316E+00
         -4   -1    0    0    0  501 -0.00000000000E+00  0.00000000000E+00  0.51483650631E+00  0.15104491478E+01  0.14200000000E+01 0.  1.
          4   -1    0    0  501    0  0.00000000000E+00 -0.00000000000E+00 -0.97754296939E+02  0.97764610008E+02  0.14200000000E+01 0. -1.
       1023    2    1    2    0    0  0.00000000000E+00  0.00000000000E+00 -0.97239460433E+02  0.99275059156E+02  0.20000617620E+02 0.  0.
        -11    1    3    3    0    0 -0.94430857620E+01  0.32914977194E+01 -0.48526858022E+02  0.49546561694E+02  0.51100000000E-03 0.  1.
         11    1    3    3    0    0  0.94430857620E+01 -0.32914977194E+01 -0.48712602410E+02  0.49728497462E+02  0.51100000000E-03 0. -1.
<mgrwt>
<rscale>  0 0.20000618E+02</rscale>
<asrwt>0</asrwt>
<pdfrwt beam="2">  1        4 0.15116494E-01 0.20000618E+02</pdfrwt>
<pdfrwt beam="1">  1       -4 0.15658459E-03 0.20000618E+02</pdfrwt>
<totfact> 0.98213365E+05</totfact>
</mgrwt>
</event>
<event>
 5    1  0.1154861E-006  0.2000155E+02  0.7818608E-02  0.1745297E+00
          4   -1    0    0  501    0  0.00000000000E+00  0.00000000000E+00  0.93577864700E+02  0.93588637996E+02  0.14200000000E+01 0.  1.
         -4   -1    0    0    0  501 -0.00000000000E+00 -0.00000000000E+00 -0.58143675021E+00  0.15344278069E+01  0.14200000000E+01 0. -1.
       1023    2    1    2    0    0  0.00000000000E+00  0.00000000000E+00  0.92996427950E+02  0.95123065802E+02  0.20001550844E+02 0.  0.
        -11    1    3    3    0    0 -0.92154955731E+01 -0.38838369517E+01  0.46865385731E+02  0.47920495908E+02  0.51100000000E-03 0. -1.
         11    1    3    3    0    0  0.92154955731E+01  0.38838369517E+01  0.46131042219E+02  0.47202569894E+02  0.51100000000E-03 0.  1.
<mgrwt>
<rscale>  0 0.20001551E+02</rscale>
<asrwt>0</asrwt>
<pdfrwt beam="1">  1        4 0.14470732E-01 0.20001551E+02</pdfrwt>
<pdfrwt beam="2">  1       -4 0.16358750E-03 0.20001551E+02</pdfrwt>
<totfact> 0.99408380E+05</totfact>
</mgrwt>
</event>
<event>
 5    1  0.1154861E-006  0.2000015E+02  0.7818608E-02  0.1745325E+00
          4   -1    0    0  501    0  0.00000000000E+00  0.00000000000E+00  0.24877446278E+02  0.24917939990E+02  0.14200000000E+01 0.  1.
         -4   -1    0    0    0  501 -0.00000000000E+00 -0.00000000000E+00 -0.38491103522E+01  0.41026882045E+01  0.14200000000E+01 0. -1.
       1023    2    1    2    0    0  0.00000000000E+00  0.00000000000E+00  0.21028335926E+02  0.29020628194E+02  0.20000148724E+02 0.  0.
        -11    1    3    3    0    0 -0.99119353612E+01 -0.13247577308E+01  0.10504839487E+02  0.14503554687E+02  0.51100000000E-03 0. -1.
         11    1    3    3    0    0  0.99119353612E+01  0.13247577308E+01  0.10523496440E+02  0.14517073508E+02  0.51100000000E-03 0.  1.
<mgrwt>
<rscale>  0 0.20000149E+02</rscale>
<asrwt>0</asrwt>
<pdfrwt beam="1">  1        4 0.38499203E-02 0.20000149E+02</pdfrwt>
<pdfrwt beam="2">  1       -4 0.61479172E-03 0.20000149E+02</pdfrwt>
<totfact> 0.12507024E+06</totfact>
</mgrwt>
</event>
<event>
 5    1  0.1154861E-006  0.2000036E+02  0.7818608E-02  0.1745321E+00
          4   -1    0    0  501    0  0.00000000000E+00  0.00000000000E+00  0.44800114405E+01  0.46996704680E+01  0.14200000000E+01 0. -1.
         -4   -1    0    0    0  501 -0.00000000000E+00 -0.00000000000E+00 -0.21544441207E+02  0.21591186788E+02  0.14200000000E+01 0.  1.
       1023    2    1    2    0    0  0.00000000000E+00  0.00000000000E+00 -0.17064429767E+02  0.26290857256E+02  0.20000360297E+02 0.  0.
        -11    1    3    3    0    0 -0.70625392257E+01  0.70796412999E+01 -0.86020391497E+01  0.13190748995E+02  0.51100000000E-03 0. -1.
         11    1    3    3    0    0  0.70625392257E+01 -0.70796412999E+01 -0.84623906169E+01  0.13100108262E+02  0.51100000000E-03 0.  1.
<mgrwt>
<rscale>  0 0.20000360E+02</rscale>
<asrwt>0</asrwt>
<pdfrwt beam="1">  1        4 0.70972520E-03 0.20000360E+02</pdfrwt>
<pdfrwt beam="2">  1       -4 0.33350220E-02 0.20000360E+02</pdfrwt>
<totfact> 0.12653726E+06</totfact>
</mgrwt>
</event>
<event>
 5    1  0.1154861E-006  0.2000008E+02  0.7818608E-02  0.1745327E+00
         -4   -1    0    0    0  501 -0.00000000000E+00  0.00000000000E+00  0.62767467497E+00  0.15525384045E+01  0.14200000000E+01 0.  1.
          4   -1    0    0  501    0  0.00000000000E+00 -0.00000000000E+00 -0.90802096071E+02  0.90813198660E+02  0.14200000000E+01 0.  1.
       1023    2    1    2    0    0  0.00000000000E+00  0.00000000000E+00 -0.90174421396E+02  0.92365737065E+02  0.20000077735E+02 0.  0.
        -11    1    3    3    0    0  0.46780081041E+01  0.88383785473E+01 -0.45129010561E+02  0.46223676721E+02  0.51100000000E-03 0. -1.
         11    1    3    3    0    0 -0.46780081041E+01 -0.88383785473E+01 -0.45045410835E+02  0.46142060343E+02  0.51100000000E-03 0.  1.
<mgrwt>
<rscale>  0 0.20000078E+02</rscale>
<asrwt>0</asrwt>
<pdfrwt beam="2">  1        4 0.14041545E-01 0.20000078E+02</pdfrwt>
<pdfrwt beam="1">  1       -4 0.16856282E-03 0.20000078E+02</pdfrwt>
<totfact> 0.10024157E+06</totfact>
</mgrwt>
</event>
<event>
 5    1  0.1154861E-006  0.2000045E+02  0.7818608E-02  0.1745319E+00
         -4   -1    0    0    0  501 -0.00000000000E+00  0.00000000000E+00  0.58335399412E+01  0.60038810985E+01  0.14200000000E+01 0. -1.
          4   -1    0    0  501    0  0.00000000000E+00 -0.00000000000E+00 -0.16695415979E+02  0.16755694994E+02  0.14200000000E+01 0.  1.
       1023    2    1    2    0    0  0.00000000000E+00  0.00000000000E+00 -0.10861876038E+02  0.22759576092E+02  0.20000448816E+02 0.  0.
        -11    1    3    3    0    0 -0.59722142914E+01 -0.80208904960E+01 -0.53744967473E+01  0.11352851776E+02  0.51100000000E-03 0.  1.
         11    1    3    3    0    0  0.59722142914E+01  0.80208904960E+01 -0.54873792906E+01  0.11406724316E+02  0.51100000000E-03 0. -1.
<mgrwt>
<rscale>  0 0.20000449E+02</rscale>
<asrwt>0</asrwt>
<pdfrwt beam="2">  1        4 0.25862655E-02 0.20000449E+02</pdfrwt>
<pdfrwt beam="1">  1       -4 0.91520770E-03 0.20000449E+02</pdfrwt>
<totfact> 0.12851773E+06</totfact>
</mgrwt>
</event>
<event>
 5    1  0.1154861E-006  0.2000311E+02  0.7818608E-02  0.1745266E+00
         -4   -1    0    0    0  501 -0.00000000000E+00  0.00000000000E+00  0.21654539921E+02  0.21701048343E+02  0.14200000000E+01 0.  1.
          4   -1    0    0  501    0  0.00000000000E+00 -0.00000000000E+00 -0.44574651835E+01  0.46781829659E+01  0.14200000000E+01 0. -1.
       1023    2    1    2    0    0  0.00000000000E+00  0.00000000000E+00  0.17197074737E+02  0.26379231309E+02  0.20003111381E+02 0.  0.
        -11    1    3    3    0    0  0.68248335246E+01 -0.73111238825E+01  0.85784981501E+01  0.13176551743E+02  0.51100000000E-03 0. -1.
         11    1    3    3    0    0 -0.68248335246E+01  0.73111238825E+01  0.86185765870E+01  0.13202679566E+02  0.51100000000E-03 0.  1.
<mgrwt>
<rscale>  0 0.20003111E+02</rscale>
<asrwt>0</asrwt>
<pdfrwt beam="2">  1        4 0.70631973E-03 0.20003111E+02</pdfrwt>
<pdfrwt beam="1">  1       -4 0.33520236E-02 0.20003111E+02</pdfrwt>
<totfact> 0.12645343E+06</totfact>
</mgrwt>
</event>
<event>
 5    1  0.1154861E-006  0.2000270E+02  0.7818608E-02  0.1745274E+00
          4   -1    0    0  501    0  0.00000000000E+00  0.00000000000E+00  0.27295737431E+01  0.30768446206E+01  0.14200000000E+01 0.  1.
         -4   -1    0    0    0  501 -0.00000000000E+00 -0.00000000000E+00 -0.34091023267E+02  0.34120584218E+02  0.14200000000E+01 0. -1.
       1023    2    1    2    0    0  0.00000000000E+00  0.00000000000E+00 -0.31361449524E+02  0.37197428839E+02  0.20002704716E+02 0.  0.
        -11    1    3    3    0    0 -0.76482072133E+01 -0.64445060193E+01 -0.15647598382E+02  0.18570785304E+02  0.51100000000E-03 0. -1.
         11    1    3    3    0    0  0.76482072133E+01  0.64445060193E+01 -0.15713851142E+02  0.18626643535E+02  0.51100000000E-03 0.  1.
<mgrwt>
<rscale>  0 0.20002705E+02</rscale>
<asrwt>0</asrwt>
<pdfrwt beam="1">  1        4 0.44892151E-03 0.20002705E+02</pdfrwt>
<pdfrwt beam="2">  1       -4 0.52737596E-02 0.20002705E+02</pdfrwt>
<totfact> 0.12091791E+06</totfact>
</mgrwt>
</event>
<event>
 5    1  0.1178947E-006  0.2000363E+02  0.7818608E-02  0.1745256E+00
          4   -1    0    0  501    0  0.00000000000E+00  0.00000000000E+00  0.69980100012E+01  0.71406263014E+01  0.14200000000E+01 0. -1.
         -4   -1    0    0    0  501 -0.00000000000E+00 -0.00000000000E+00 -0.13971803748E+02  0.14043777981E+02  0.14200000000E+01 0.  1.
       1023    2    1    2    0    0  0.00000000000E+00  0.00000000000E+00 -0.69737937467E+01  0.21184404282E+02  0.20003629310E+02 0.  0.
        -11    1    3    3    0    0  0.53485377776E+01 -0.84498212532E+01 -0.36702052974E+01  0.10652546304E+02  0.51100000000E-03 0. -1.
         11    1    3    3    0    0 -0.53485377776E+01  0.84498212532E+01 -0.33035884493E+01  0.10531857978E+02  0.51100000000E-03 0.  1.
<mgrwt>
<rscale>  0 0.20003629E+02</rscale>
<asrwt>0</asrwt>
<pdfrwt beam="1">  1        4 0.10931239E-02 0.20003629E+02</pdfrwt>
<pdfrwt beam="2">  1       -4 0.21660152E-02 0.20003629E+02</pdfrwt>
<totfact> 0.12939092E+06</totfact>
</mgrwt>
</event>
<event>
 5    1  0.1154861E-006  0.2000142E+02  0.7818608E-02  0.1745300E+00
          4   -1    0    0  501    0  0.00000000000E+00  0.00000000000E+00  0.85066533133E+02  0.85078384207E+02  0.14200000000E+01 0.  1.
         -4   -1    0    0    0  501 -0.00000000000E+00 -0.00000000000E+00 -0.73058754150E+00  0.15969214620E+01  0.14200000000E+01 0. -1.
       1023    2    1    2    0    0  0.00000000000E+00  0.00000000000E+00  0.84335945591E+02  0.86675305669E+02  0.20001422299E+02 0.  0.
        -11    1    3    3    0    0  0.91207198706E+01 -0.41006590884E+01  0.42628367074E+02  0.43785621106E+02  0.51100000000E-03 0.  1.
         11    1    3    3    0    0 -0.91207198706E+01  0.41006590884E+01  0.41707578517E+02  0.42889684563E+02  0.51100000000E-03 0. -1.
<mgrwt>
<rscale>  0 0.20001422E+02</rscale>
<asrwt>0</asrwt>
<pdfrwt beam="1">  1        4 0.13154713E-01 0.20001422E+02</pdfrwt>
<pdfrwt beam="2">  1       -4 0.17995076E-03 0.20001422E+02</pdfrwt>
<totfact> 0.10196709E+06</totfact>
</mgrwt>
</event>
<event>
 4    1  0.1154861E-006  0.2002115E+02  0.7818608E-02  0.1744908E+00
          4   -1    0    0  501    0  0.00000000000E+00  0.00000000000E+00  0.21075215706E+01  0.25412688112E+01  0.14200000000E+01 0.  1.
         -4   -1    0    0    0  501 -0.00000000000E+00 -0.00000000000E+00 -0.42666341355E+02  0.42689964683E+02  0.14200000000E+01 0. -1.
        -11    1    1    2    0    0  0.62995052905E+01  0.77799666356E+01 -0.20273325554E+02  0.22610160925E+02  0.51100000000E-03 0. -1.
         11    1    1    2    0    0 -0.62995052905E+01 -0.77799666356E+01 -0.20285494230E+02  0.22621072569E+02  0.51100000000E-03 0.  1.
<mgrwt>
<rscale>  0 0.20021154E+02</rscale>
<asrwt>0</asrwt>
<pdfrwt beam="1">  1        4 0.35941647E-03 0.20021154E+02</pdfrwt>
<pdfrwt beam="2">  1       -4 0.65992343E-02 0.20021154E+02</pdfrwt>
<totfact> 0.11700573E+06</totfact>
</mgrwt>
</event>
<event>
 5    1  0.1154861E-006  0.2000658E+02  0.7818608E-02  0.1745197E+00
         -4   -1    0    0    0  501 -0.00000000000E+00  0.00000000000E+00  0.21143719789E+02  0.21191349332E+02  0.14200000000E+01 0. -1.
          4   -1    0    0  501    0  0.00000000000E+00 -0.00000000000E+00 -0.45718508483E+01  0.47872977951E+01  0.14200000000E+01 0.  1.
       1023    2    1    2    0    0  0.00000000000E+00  0.00000000000E+00  0.16571868941E+02  0.25978647127E+02  0.20006580577E+02 0.  0.
        -11    1    3    3    0    0  0.51446244339E+01 -0.85756661095E+01  0.85948764947E+01  0.13186398751E+02  0.51100000000E-03 0. -1.
         11    1    3    3    0    0 -0.51446244339E+01  0.85756661095E+01  0.79769924461E+01  0.12792248377E+02  0.51100000000E-03 0.  1.
<mgrwt>
<rscale>  0 0.20006581E+02</rscale>
<asrwt>0</asrwt>
<pdfrwt beam="2">  1        4 0.72359834E-03 0.20006581E+02</pdfrwt>
<pdfrwt beam="1">  1       -4 0.32731165E-02 0.20006581E+02</pdfrwt>
<totfact> 0.12662861E+06</totfact>
</mgrwt>
</event>
<event>
 5    1  0.1154861E-006  0.2000057E+02  0.7818608E-02  0.1745317E+00
         -4   -1    0    0    0  501 -0.00000000000E+00  0.00000000000E+00  0.22906128059E+01  0.26950523235E+01  0.14200000000E+01 0. -1.
          4   -1    0    0  501    0  0.00000000000E+00 -0.00000000000E+00 -0.39699137610E+02  0.39724525509E+02  0.14200000000E+01 0.  1.
       1023    2    1    2    0    0  0.00000000000E+00  0.00000000000E+00 -0.37408524804E+02  0.42419577833E+02  0.20000571380E+02 0.  0.
        -11    1    3    3    0    0  0.99401158708E+01 -0.10941975938E+01 -0.18811189582E+02  0.21304084717E+02  0.51100000000E-03 0. -1.
         11    1    3    3    0    0 -0.99401158708E+01  0.10941975938E+01 -0.18597335222E+02  0.21115493116E+02  0.51100000000E-03 0.  1.
<mgrwt>
<rscale>  0 0.20000571E+02</rscale>
<asrwt>0</asrwt>
<pdfrwt beam="2">  1        4 0.61406228E-02 0.20000571E+02</pdfrwt>
<pdfrwt beam="1">  1       -4 0.38546565E-03 0.20000571E+02</pdfrwt>
<totfact> 0.11850768E+06</totfact>
</mgrwt>
</event>
<event>
 4    1  0.1154861E-006  0.2002553E+02  0.7818608E-02  0.1744821E+00
         -4   -1    0    0    0  501 -0.00000000000E+00  0.00000000000E+00  0.18202459772E+02  0.18257763876E+02  0.14200000000E+01 0.  1.
          4   -1    0    0  501    0  0.00000000000E+00 -0.00000000000E+00 -0.53514020426E+01  0.55365967726E+01  0.14200000000E+01 0. -1.
        -11    1    1    2    0    0  0.86049111202E+00 -0.99683106210E+01  0.68823557260E+01  0.12143907205E+02  0.51100000000E-03 0. -1.
         11    1    1    2    0    0 -0.86049111202E+00  0.99683106210E+01  0.59687020037E+01  0.11650453444E+02  0.51100000000E-03 0.  1.
<mgrwt>
<rscale>  0 0.20025532E+02</rscale>
<asrwt>0</asrwt>
<pdfrwt beam="2">  1        4 0.84179254E-03 0.20025532E+02</pdfrwt>
<pdfrwt beam="1">  1       -4 0.28188783E-02 0.20025532E+02</pdfrwt>
<totfact> 0.12760158E+06</totfact>
</mgrwt>
</event>
<event>
 4    1  0.1154861E-006  0.2009068E+02  0.7818608E-02  0.1743531E+00
         -4   -1    0    0    0  501 -0.00000000000E+00  0.00000000000E+00  0.54095016831E+01  0.55927728776E+01  0.14200000000E+01 0.  1.
          4   -1    0    0  501    0  0.00000000000E+00 -0.00000000000E+00 -0.18131779400E+02  0.18187298431E+02  0.14200000000E+01 0. -1.
        -11    1    1    2    0    0  0.79249346579E+01 -0.61223635760E+01 -0.54284397682E+01  0.11391044011E+02  0.51100000000E-03 0. -1.
         11    1    1    2    0    0 -0.79249346579E+01  0.61223635760E+01 -0.72938379491E+01  0.12389027297E+02  0.51100000000E-03 0.  1.
<mgrwt>
<rscale>  0 0.20090680E+02</rscale>
<asrwt>0</asrwt>
<pdfrwt beam="2">  1        4 0.28078730E-02 0.20090680E+02</pdfrwt>
<pdfrwt beam="1">  1       -4 0.85059951E-03 0.20090680E+02</pdfrwt>
<totfact> 0.12676722E+06</totfact>
</mgrwt>
</event>
